/*--------------------------------*- C++ -*----------------------------------*\
| ========                 |                                                 |
| \      /  F ield         | OpenFOAM: The Open Source CFD Toolbox           |
|  \    /   O peration     | Version:  1.6                                   |
|   \  /    A nd           | Web:      http://www.OpenFOAM.org               |
|    \/     M anipulation  |                                                 |
\*---------------------------------------------------------------------------*/

FoamFile
{
    version     2.0;
    format      ascii;
    class       volScalarField;
    object      u;
}
// * * * * * * * * * * * * * * * * * * * * * * * * * * * * * * * * * * * * * //

dimensions      [0 0 0 0 0 0 0];

internalField   nonuniform List<scalar>
4000
(
0.180429
0.0846931
0.168169
0.171464
0.195775
0.0424238
0.0719885
0.164976
0.0596517
0.118964
0.10252
0.135049
0.0783369
0.110252
0.20449
0.196751
0.136518
0.154038
0.0304089
0.130346
0.00350052
0.0521595
0.0294703
0.172696
0.0336466
0.0861022
0.0278723
0.0233665
0.214517
0.0468703
0.110151
0.180198
0.131563
0.0635723
0.136913
0.11259
0.105996
0.208902
0.0628175
0.165648
0.113118
0.165338
0.0859484
0.191454
0.0608414
0.0756899
0.173458
0.197359
0.0149798
0.203866
0.112957
0.0184804
0.0412776
0.142427
0.191176
0.0749242
0.0137807
0.00429992
0.0982907
0.0135497
0.0511702
0.208442
0.193748
0.182734
0.057266
0.115913
0.0805751
0.163262
0.110066
0.143393
0.114162
0.00843539
0.093982
0.20011
0.19989
0.154823
0.0610515
0.158599
0.137434
0.0760314
0.147717
0.0356427
0.0945117
0.188995
0.17807
0.0709394
0.0491705
0.19185
0.0752393
0.147461
0.2054
0.12641
0.141155
0.184399
0.0943948
0.198421
0.0855636
0.17497
0.146935
0.19563
0.103614
0.0463481
0.204065
0.197596
0.0317097
0.189207
0.137671
0.0927613
0.133057
0.060357
0.168793
0.0660261
0.0959997
0.048556
0.0402724
0.0593209
0.119495
0.089443
0.0364228
0.194735
0.0221558
0.0270745
0.106396
0.163311
0.211474
0.200791
0.146983
0.0822891
0.161012
0.0791699
0.0631705
0.0498778
0.125518
0.0524872
0.0327255
0.157228
0.0269455
0.170396
0.0352406
0.160003
0.0160052
0.204033
0.0112806
0.112005
0.037841
0.051553
0.171326
0.157336
0.140996
0.207749
0.137323
0.163152
0.0200748
0.0289701
0.111714
0.0168002
0.0150123
0.0439493
0.0990893
0.176024
0.123119
0.16226
0.0111538
0.0338888
0.214747
0.0438792
0.191117
0.0269442
0.214276
0.0116088
0.186947
0.0155325
0.000893699
0.198228
0.127537
0.0387346
0.0350322
0.0841148
0.196071
0.176028
0.0771151
0.118645
0.124432
0.0971899
0.147615
0.0213975
0.11399
0.162628
0.0653469
0.213079
0.123904
0.188466
0.160591
0.135057
0.00760658
0.160589
0.178937
0.198723
0.187534
0.178464
0.210332
0.159732
0.193996
0.211226
0.143211
0.106785
0.0352119
0.178244
0.1909
0.0165345
0.139524
0.0532671
0.13518
0.0492068
0.150457
0.0680467
0.0706043
0.0496988
0.0159259
0.135951
0.0480298
0.13983
0.109669
0.208621
0.0601386
0.117276
0.154462
0.0243268
0.10125
0.127247
0.202791
0.0968338
0.0722309
0.182039
0.093311
0.000693951
0.0740759
0.128523
0.178938
0.0502279
0.145057
0.103713
0.103495
0.0654887
0.15292
0.0392036
0.133535
0.00877554
0.0889023
0.149461
0.144727
0.136932
0.0745426
0.0396474
0.130804
0.134681
0.156923
0.0705179
0.159008
0.0434249
0.197765
0.14705
0.140259
0.0552473
0.114341
0.0188213
0.0559413
0.188417
0.147344
0.0201306
0.0238963
0.0776532
0.123843
0.127391
0.143142
0.0620146
0.166595
0.061929
0.0707901
0.0407487
0.21139
0.000768493
0.177681
0.0711846
0.0404159
0.093737
0.205866
0.197339
0.164255
0.150125
0.0260153
0.147271
0.0824273
0.166274
0.202519
0.196768
0.185095
0.0437116
0.170437
0.117691
0.0638422
0.194333
0.195344
0.187686
0.106976
0.123738
0.0349517
0.058822
0.185667
0.105742
0.0995707
0.182309
0.10651
0.0625032
0.0387452
0.146926
0.15624
0.0298625
0.129517
0.105747
0.179988
0.155532
0.0382698
0.0476667
0.107058
0.0260401
0.0296865
0.0774045
0.0697518
0.200123
0.195096
0.133594
0.179707
0.175692
0.106531
0.0719346
0.0846811
0.141483
0.130757
0.0555997
0.0324764
0.0155789
0.0231602
0.138987
0.0780821
0.0619054
0.0711646
0.019574
0.0917679
0.200681
0.125321
0.0570074
0.141465
0.163591
0.104674
0.0337739
0.189631
0.134361
0.111178
0.0446341
0.119735
0.0915256
0.178228
0.0846943
0.0524688
0.0700109
0.156629
0.13715
0.211494
0.0726371
0.19275
0.0292218
0.088216
0.00116148
0.168209
0.166298
0.0630669
0.0246247
0.185872
0.154835
0.0105576
0.0964446
0.211842
0.152022
0.0452868
0.101768
0.185796
0.0201691
0.0213802
0.0822263
0.0648031
0.141115
0.173752
0.0282828
0.0110613
0.0114724
0.0982937
0.16769
0.148622
0.0950391
0.025579
0.126624
0.124261
0.113795
0.127785
0.077721
0.0653448
0.190852
0.102346
0.0364686
0.130938
0.112903
0.132913
0.128032
0.0501773
0.1782
0.0150518
0.0212252
0.198369
0.036432
0.103451
0.0484238
0.177547
0.062455
0.0767066
0.188609
0.0739273
0.175
0.141551
0.00780125
0.055291
0.167129
0.134425
0.179552
0.0661761
0.0474614
0.0425246
0.131521
0.0235649
0.14487
0.16799
0.154503
0.0430253
0.0861544
0.067787
0.0932026
0.049606
0.0828388
0.114428
0.0332267
0.119271
0.00313089
0.0816505
0.0820698
0.0655859
0.158357
0.0559301
0.139513
0.118609
0.197481
0.147314
0.1739
0.149862
0.0669909
0.138704
0.00128952
0.114452
0.181228
0.13281
0.138017
0.11135
0.0860516
0.0777721
0.154376
0.172206
0.145559
0.0328298
0.00706364
0.0136495
0.147258
0.0402903
0.13292
0.150389
0.121941
0.000241695
0.00122603
0.0655495
0.0561718
0.140739
0.184159
0.0389041
0.0733053
0.14331
0.188766
0.140296
0.0672655
0.190055
0.0400001
0.0337454
0.108117
0.178017
0.145096
0.194169
0.0410409
0.0847228
0.151627
0.1866
0.117553
0.15869
0.20025
0.0500619
0.198981
0.118421
0.20045
0.106173
0.118663
0.201676
0.171723
0.174835
0.127667
0.141133
0.213739
0.200973
0.0696947
0.187757
0.12652
0.13696
0.163063
0.16652
0.170706
0.0564326
0.129789
0.101053
0.0358532
0.17083
0.185776
0.18748
0.142682
0.08858
0.131422
0.128183
0.138642
0.115654
0.0318562
0.124344
0.00707884
0.150519
0.111272
0.178801
0.110606
0.024191
0.105186
0.109597
0.0104152
0.174881
0.0826048
0.136936
0.0970925
0.0309199
0.0887078
0.0530498
0.0873525
0.00374878
0.154103
0.123206
0.174579
0.12513
0.0959372
0.102513
0.21371
0.0126107
0.0159473
0.137604
0.128265
0.0478035
0.0471991
0.135344
0.198323
0.158471
0.0993968
0.0941804
0.182662
0.204583
0.203777
0.193077
0.164715
0.0716334
0.115265
0.0470591
0.102553
0.203972
0.100109
0.189906
0.207721
0.0394633
0.0983631
0.167552
0.164593
0.1943
0.055316
0.163555
0.206911
0.0712633
0.0864102
0.120428
0.119067
0.133609
0.0410229
0.102641
0.077332
0.14042
0.196822
0.0452457
0.130254
0.18585
0.0235746
0.0802205
0.0427355
0.138839
0.12728
0.145289
0.128063
0.0126402
0.120446
0.121036
0.0521035
0.00406105
0.0738394
0.00194851
0.198361
0.129155
0.165504
0.190524
0.200419
0.0371654
0.0962033
0.104737
0.170775
0.137226
0.207379
0.0333582
0.0628975
0.189452
0.0786039
0.193151
0.160554
0.102178
0.0586235
0.203289
0.0262693
0.185903
0.13383
0.154332
0.198543
0.0395279
0.06062
0.0358985
0.043589
0.134459
0.037847
0.027202
0.0488664
0.203351
0.00297776
0.0345368
0.0257675
0.0991811
0.139274
0.196542
0.0216589
0.131904
0.015152
0.0845563
0.106608
0.0937559
0.0629594
0.0524134
0.195934
0.121583
0.0409545
0.00745528
0.0927377
0.174784
0.161788
0.0765327
0.214312
0.00765931
0.112431
0.043153
0.142119
0.150278
0.070355
0.190985
0.13888
0.0733328
0.0107735
0.164648
0.172514
0.150047
0.146442
0.194173
0.0672033
0.161594
0.0639807
0.173811
0.0406011
0.12694
0.011476
0.0217871
0.0337746
0.0524305
0.0292424
0.126512
0.0124666
0.19103
0.203045
0.0120307
0.198689
0.100728
0.0551837
0.12606
0.0362575
0.125539
0.102296
0.175138
0.198871
0.11307
0.125037
0.156637
0.048369
0.0567305
0.136061
0.115572
0.00357569
0.200042
0.0746349
0.0441768
0.112234
0.0861109
0.0659639
0.146008
0.138541
0.0952063
0.0577721
0.151008
0.071488
0.0460687
0.163039
0.0554291
0.146796
0.00347409
0.181489
0.183054
0.129013
0.0690368
0.143443
0.113136
0.182107
0.0537323
0.0550245
0.0157272
0.110463
0.191086
0.131299
0.114038
0.176379
0.205934
0.158215
0.0738647
0.077297
0.00943074
0.00512458
0.00109011
0.104637
0.0628967
0.152098
0.176125
0.108965
0.100389
0.0168058
0.0410134
0.103863
0.198295
0.00931894
0.0181271
0.0525829
0.152762
0.131263
0.0199412
0.206495
0.186288
0.0356684
0.102209
0.162625
0.166968
0.00149897
0.124256
0.158154
0.159714
0.198121
0.0207026
0.169145
0.203245
0.0217927
0.0590336
0.0513937
0.173891
0.0204103
0.160359
0.0595312
0.037216
0.201373
0.163394
0.0207622
0.210691
0.181521
0.0733451
0.148705
0.0980357
0.0932863
0.140452
0.0695749
0.128955
0.0279121
0.0174515
0.0811743
0.0294111
0.141708
0.0245799
0.189125
0.12508
0.0452825
0.143522
0.113577
0.0670753
0.202555
0.164971
0.0262178
0.00821731
0.110582
0.085749
0.0454333
0.0972058
0.0343945
0.0661955
0.0931489
0.00116713
0.139541
0.0271059
0.0992028
0.0180785
0.167558
0.168778
0.147033
0.19547
0.186229
0.0134591
0.0101324
0.113188
0.038039
0.199258
0.0235202
0.0833215
0.128031
0.137097
0.150397
0.115838
0.0873199
0.176615
0.124055
0.197902
0.0476152
0.169489
0.080359
0.0820097
0.0209359
0.173508
0.0831769
0.160477
0.200614
0.18238
0.178555
0.153423
0.136409
0.11084
0.134144
0.10789
0.124299
0.144277
0.00632997
0.162338
0.128786
0.0298502
0.0309112
0.0420687
0.166948
0.181308
0.157907
0.0395191
0.143174
0.067214
0.0226723
0.19079
0.0219544
0.103031
0.0580509
0.0428904
0.0617909
0.141228
0.203367
0.0476564
0.108859
0.167174
0.201079
0.0305197
0.0632651
0.120475
0.13841
0.187564
0.0500038
0.14474
0.135154
0.17879
0.17459
0.166065
0.00611014
0.126789
0.132625
0.164017
0.166308
0.0610507
0.0164827
0.18898
0.0370918
0.0384371
0.0772634
0.0951427
0.0813275
0.139054
0.0216221
0.069946
0.186711
0.130481
0.0223712
0.173042
0.161001
0.0856364
0.0787689
0.0846621
0.0584522
0.128773
0.0146533
0.193606
0.0928141
0.189243
0.144923
0.0989242
0.101284
0.0627992
0.0481929
0.0528434
0.12385
0.0646755
0.0270755
0.160942
0.103113
0.104339
0.041336
0.18444
0.0286449
0.0629581
0.0396377
0.000607264
0.193439
0.0620089
0.173649
0.139692
0.147645
0.0376697
0.00960558
0.206098
0.166442
0.0242589
0.184955
0.044508
0.213502
0.11513
0.143432
0.100037
0.177929
0.191625
0.152881
0.0870305
0.0415522
0.179956
0.0332238
0.144665
0.0695466
0.0745598
0.114357
0.0981915
0.137518
0.153994
0.0987987
0.116209
0.00125482
0.0576995
0.0411523
0.1489
0.0953692
0.0507579
0.140249
0.0470632
0.0750168
0.110456
0.0915712
0.0737704
0.0108375
0.020255
0.173808
0.188767
0.21188
0.11194
0.0610487
0.038684
0.0771476
0.0942725
0.183349
0.146694
0.168832
0.082957
0.0301374
0.0916019
0.0222029
0.128936
0.207811
0.0234577
0.186636
0.0342147
0.172358
0.0672564
0.0849725
0.0978588
0.11432
0.159989
0.208315
0.205891
0.0190113
0.00440414
0.0113974
0.192819
0.193171
0.00852916
0.0900105
0.0394709
0.0472131
0.167158
0.133743
0.0158136
0.099104
0.0878274
0.0987706
0.129241
0.179429
0.120973
0.0434291
0.172492
0.144431
0.0153163
0.206706
0.102041
0.0825727
0.0769304
0.199899
0.196892
0.0221714
0.193466
0.188035
0.0411827
0.19787
0.199432
0.0192533
0.176292
0.207961
0.109264
0.00101501
0.040426
0.0616735
0.134758
0.0562396
0.160777
0.00783743
0.15501
0.0752704
0.187267
0.0612353
0.118699
0.14501
0.205667
0.134016
0.136968
0.0929588
0.0018401
0.213898
0.0781099
0.198732
0.0213213
0.0568275
0.172019
0.062504
0.0399493
0.156702
0.0817573
0.0014934
0.149915
0.191021
0.00250841
0.190341
0.0379461
0.137267
0.0318322
0.198724
0.145104
0.186842
0.0592456
0.117623
0.0333293
0.177945
0.0478842
0.0242475
0.0972125
0.184852
0.117206
0.0990526
0.184002
0.195316
0.0830366
0.205323
0.0373954
0.0403068
0.0530789
0.0773447
0.197009
0.134836
0.0788381
0.132176
0.111109
0.0813465
0.107768
0.149055
0.00386497
0.139601
0.13303
0.148969
0.111695
0.192276
0.0518435
0.145024
0.155473
0.0997276
0.169271
0.0379367
0.0698312
0.0717293
0.136989
0.0390848
0.0522972
0.00527755
0.0296597
0.0896925
0.0455843
0.0827386
0.167037
0.027845
0.0028264
0.031127
0.160021
0.113935
0.112473
0.0530406
0.0482418
0.116338
0.192641
0.181272
0.0505593
0.0895873
0.158799
0.102403
0.0198629
0.0995234
0.20213
0.189134
0.13746
0.0572133
0.0461152
0.059701
0.0962981
0.0984124
0.0649786
0.125958
0.188105
0.110563
0.208696
0.140394
0.138408
0.211523
0.171521
0.0836803
0.11071
0.0692459
0.136721
0.158951
0.185584
0.114614
0.125475
0.0213952
0.204201
0.0695258
0.123798
0.00931557
0.169049
0.11118
0.19845
0.091761
0.168393
0.0298167
0.151462
0.049943
0.128229
0.00169224
0.175901
0.101586
0.112255
0.169849
0.0272312
0.0359148
0.166623
0.198752
0.119595
0.0625844
0.0532495
0.0415676
0.00678741
0.0240854
0.156181
0.132262
0.0454807
0.145634
0.201788
0.169279
0.15495
0.156089
0.0657103
0.138651
0.0331016
0.0193552
0.168468
0.184564
0.0692982
0.0819485
0.186256
0.0304505
0.183534
0.0837627
0.200299
0.210765
0.119677
0.152174
0.194769
0.0245241
1.00669e-05
0.0332702
0.0660916
0.00679748
0.0573557
0.00752456
0.13906
0.102836
0.153159
0.1261
0.0573667
0.0933597
0.0674403
0.123077
0.0172623
0.100542
0.142432
0.18573
0.0703572
0.21173
0.0529302
0.0418647
0.0274325
0.0217162
0.125627
0.0129834
0.0177333
0.0305564
0.165157
0.212502
0.0550805
0.165168
0.0310243
0.121172
0.171965
0.0883799
0.128697
0.0962765
0.191216
0.0671069
0.00762771
0.0338346
0.160467
0.075068
0.156912
0.177729
0.17561
0.0845954
0.148711
0.0312186
0.0815774
0.201641
0.0730833
0.10901
0.00860863
0.198711
0.121993
0.0263419
0.0145187
0.0724025
0.0240959
0.0695992
0.0228217
0.0551202
0.190771
0.194787
0.1435
0.10472
0.0763149
0.119968
0.171826
0.0839426
0.153803
0.117545
0.159011
0.0959659
0.0805252
0.119872
0.180561
0.0144874
0.151091
0.0473904
0.00137989
0.00942558
0.1564
0.00998852
0.208136
0.0636453
0.0363304
0.00790652
0.136048
0.0604263
0.0775057
0.15887
0.115547
0.0535286
0.138908
0.0442983
0.158248
0.000474426
0.164266
0.115326
0.084417
0.103321
0.0181227
0.0286792
0.199287
0.0986478
0.148551
0.165099
0.113135
0.0848935
0.21249
0.114515
0.094319
0.154142
0.124504
0.0877069
0.00303872
0.160834
0.0956134
0.139087
0.00651204
0.173119
0.0832078
0.122059
0.0118993
0.00736733
0.166357
0.170148
0.00784176
0.115875
0.0707256
0.0922588
0.00444702
0.0888482
0.120938
0.203734
0.187496
0.0547407
0.154085
0.0858829
0.139634
0.151826
0.200398
0.0192049
0.0912195
0.110153
0.106912
0.0942582
0.056239
0.202525
0.0185964
0.0627511
0.160896
0.101804
0.18481
0.172795
0.109171
0.136418
0.128194
0.117013
0.0375445
0.19892
0.209272
0.0419915
0.0730199
0.115462
0.0309766
0.0457676
0.170202
0.185061
0.131651
0.0950881
0.122139
0.1173
0.114293
0.213358
0.0127052
0.00645643
0.0928683
0.0689443
0.208982
0.111465
0.131695
0.155129
0.213269
0.101757
0.113176
0.107692
0.0234263
0.0266222
0.00995685
0.0609707
0.010794
0.00448049
0.102962
0.0838139
0.119942
0.133939
0.129582
0.075396
0.104252
0.0464838
0.170484
0.0116424
0.163784
0.0700288
0.0102525
0.176489
0.0764852
0.103121
0.0306851
0.0707185
0.214585
0.16238
0.0110993
0.213106
0.0493886
0.124275
0.106049
0.0728149
0.150898
0.116006
0.133786
0.161692
0.120487
0.0219994
0.0307571
0.0256805
0.155938
0.160339
0.101076
0.0454417
0.206822
0.0568122
0.0570841
0.155858
0.126841
0.0673365
0.117599
0.203326
0.170457
0.148284
0.0592963
0.170294
0.0959162
0.0703956
0.168652
0.145305
0.194671
0.0599529
0.00337139
0.13082
0.175959
0.137157
0.0777635
0.0816977
0.159156
0.108521
0.107378
0.100346
0.054111
0.208455
0.145788
0.0461851
0.0505185
0.202872
0.202043
0.17736
0.0554602
0.104894
0.165937
0.0111691
0.0384296
0.0104853
0.181463
0.134346
0.0808809
0.135367
0.0649023
0.0608035
0.19532
0.0682737
0.191624
0.156531
0.205431
0.054639
0.02348
0.149839
0.16316
0.130858
0.0354367
0.00252228
0.124564
0.181225
0.0487074
0.175083
0.169349
0.0360022
0.137694
0.0100604
0.140896
0.0888831
0.0212295
0.179326
0.0993683
0.202693
0.0989231
0.180249
0.123311
0.163825
0.0263043
0.103883
0.0173507
0.00317976
0.0456652
0.00803295
0.0578187
0.0691452
0.157872
0.00622999
0.200003
0.193308
0.00875227
0.109819
0.159785
0.0574597
0.070154
0.114385
0.0934619
0.207848
0.124445
0.0196096
0.0819828
0.145675
0.198935
0.181351
0.133619
0.0831099
0.146852
0.0421825
0.0321869
0.173156
0.146065
0.0495376
0.176336
0.191731
0.0575705
0.0194064
0.0461274
0.000693862
0.0256364
0.0313823
0.194002
0.0343887
0.141202
0.139039
0.0918483
0.211356
0.0386754
0.18531
0.204455
0.163121
0.20492
0.0716898
0.0940473
0.189107
0.0382926
0.0129183
0.0574682
0.185145
0.0551009
0.0896552
0.143553
0.201166
0.139193
0.10514
0.178149
0.196763
0.124547
0.00952754
0.197457
0.150183
0.0409099
0.176711
0.184572
0.182112
0.101001
0.0616716
0.178719
0.139677
0.0322335
0.168426
0.0880492
0.0224049
0.0253675
0.182097
0.211512
0.0636601
0.195015
0.0542314
0.0340563
0.0353673
0.143887
0.177609
0.0217853
0.068331
0.0680007
0.199934
0.0503459
0.192547
0.209461
0.0330547
0.127982
0.0356228
0.209766
0.0978053
0.00298606
0.0960189
0.159477
0.181705
0.0209474
0.19171
0.135383
0.108997
0.214115
0.16075
0.0763447
0.210879
0.00966175
0.0566112
0.0503616
0.0437181
0.0919786
0.194248
0.00657853
0.113764
0.0478308
0.0745792
0.0989492
0.0981766
0.0523782
0.0936622
0.131231
0.18036
0.129285
0.126249
0.0634172
0.132271
0.00751917
0.00814583
0.0992277
0.0284665
0.199856
0.0198619
0.137463
0.199223
0.180612
0.213808
0.195353
0.190274
0.0556707
0.0309667
0.0192434
0.147649
0.0104665
0.0258219
0.0466647
0.0582973
0.100401
0.145614
0.156474
0.152779
0.0245278
0.0729569
0.118391
0.153813
0.199206
0.181808
0.0713356
0.206725
0.189954
0.170563
0.0204429
0.175062
0.190425
0.157906
0.159537
0.156289
0.156965
0.140142
0.131814
0.212636
0.171109
0.151057
0.145537
0.181575
0.176879
0.192202
0.0251244
0.0625322
0.123067
0.181598
0.000563194
0.147595
0.0398068
0.118954
0.0866597
0.024264
0.0860145
0.157995
0.0162403
0.0612204
0.11381
0.0366832
0.0215342
0.0894869
0.194589
0.181071
0.0310273
0.136806
0.106465
0.162841
0.134694
0.0628258
0.0991506
0.0654829
0.0296529
0.0612816
0.0429364
0.0547773
0.123814
0.166004
0.0216272
0.124377
0.0988507
0.061434
0.0285831
0.18551
0.085698
0.114598
0.128757
0.101938
0.175818
0.027819
0.138621
0.197352
0.117306
0.118462
0.163675
0.148333
0.0405202
0.0553919
0.0964264
0.175214
0.118218
0.195577
0.0259489
0.147871
0.0421102
0.0688853
0.202648
0.165924
0.0201407
0.00952664
0.0755526
0.118991
0.0709606
0.104136
0.0897535
0.156659
0.00398483
0.00376234
0.0438485
0.179803
0.0315814
0.18247
0.162406
0.148887
0.0861839
0.111333
0.0824722
0.126704
0.166725
0.178899
0.0871701
0.0701944
0.159727
0.113119
0.00331655
0.201837
0.182004
0.205964
0.153013
0.202145
0.000742617
0.0138172
0.106388
0.0717033
0.117953
0.196142
0.0136135
0.121938
0.199904
0.057462
0.0869921
0.0167369
0.0251837
0.0346503
0.165624
0.111368
0.145983
0.0333481
0.0233233
0.0979601
0.212247
0.110493
0.168155
0.157226
0.00886396
0.171471
0.144315
0.190868
0.162687
0.0825792
0.178265
0.16343
0.0963964
0.0699045
0.0203846
0.214349
0.0512977
0.0339981
0.121539
0.0364531
0.0914601
0.208531
0.05319
0.116644
0.0284327
0.00406581
0.013263
0.174416
0.0374139
0.0365863
0.057628
0.0349122
0.14708
0.0110341
0.192138
0.155944
0.182505
0.121704
0.132063
0.130444
0.204283
0.0955799
0.0791252
0.0859311
0.165484
0.0995097
0.0855321
0.0020337
0.133508
0.207071
0.0384868
0.0102195
0.200853
0.0916768
0.126863
0.0145376
0.0957427
0.140126
0.188954
0.133157
0.176713
0.0318334
0.168069
0.109044
0.0428675
0.145458
0.0502391
0.0106243
0.0524135
0.182303
0.141068
0.0419482
0.063134
0.00544493
0.127879
0.0138701
0.104955
0.213411
0.0159038
0.023714
0.205734
0.0543906
0.0339335
0.191839
0.146067
0.160797
0.206376
0.0270618
0.0861746
0.180582
0.160218
0.0481388
0.212415
0.113539
0.157183
0.0405341
0.0442483
0.207422
0.0511584
0.0966618
0.174976
0.192227
0.13861
0.0233615
0.197671
0.0517409
0.0372315
0.0878777
0.0504039
0.0531353
0.111592
0.0413892
0.107526
0.145525
0.0184795
0.038845
0.0915737
0.0101073
0.0659068
0.177748
0.190689
0.0113767
0.0111388
0.188356
0.124915
0.168321
0.0141413
0.169164
0.160995
0.0652997
0.051077
0.121222
0.0427779
0.189687
0.144583
0.025701
0.0266795
0.181815
0.113579
0.0770834
0.020202
0.0104221
0.118473
0.127728
0.155947
0.136952
0.166573
0.0327727
0.147059
0.0177313
0.210521
0.123
0.029108
0.00691144
0.0966071
0.154023
0.175233
0.110748
0.108438
0.121479
0.176048
0.159515
0.0279527
0.00407762
0.134454
0.172536
0.0297786
0.161134
0.139603
0.143357
0.0234687
0.159805
0.153779
0.141941
0.0727843
0.0949784
0.064145
0.0246089
0.127751
0.211204
0.0423401
0.123524
0.119456
0.0714481
0.130435
0.00131468
0.010723
0.0909197
0.112063
0.119161
0.212399
0.0733628
0.0639286
0.0256032
0.0774405
0.198383
0.198139
0.107219
0.144768
0.122994
0.035828
0.168237
0.0680504
0.189607
0.0954297
0.140835
0.0698375
0.159575
0.165444
0.197589
0.156031
0.207784
0.106364
0.0607383
0.0644835
0.0220511
0.0620529
0.0752065
0.112971
0.174116
0.194368
0.110621
0.0327305
0.0435482
0.136224
0.110171
0.0271826
0.119615
0.00264168
0.171951
0.0278609
0.0384697
0.125439
0.0959113
0.0133287
0.00612041
0.0219976
0.0831662
0.165695
0.187441
0.0660064
0.106977
0.180477
0.172371
0.167716
0.0302117
0.194422
0.0150203
0.105418
0.092644
0.189136
0.0850378
0.203265
0.00711852
0.128586
0.124741
0.11729
0.155769
0.0296082
0.119931
0.112971
0.0574691
0.158401
0.0236617
0.15338
0.17173
0.0297821
0.175378
0.0401473
0.195477
0.148071
0.106154
0.0877063
0.113799
0.063776
0.0406736
0.144011
0.0434493
0.0556939
0.0346805
0.136093
0.0300819
0.119718
0.12461
0.0372005
0.0335559
0.034603
0.15449
0.189324
0.0642112
0.0596728
0.0875471
0.12168
0.00332525
0.111209
0.0603123
0.175055
0.140991
0.0209419
0.000453774
0.12172
0.169013
0.106608
0.209426
0.0680634
0.170384
0.0353511
0.212074
0.213833
0.0910451
0.0320062
0.135178
0.121127
0.151724
0.0450396
0.158327
0.18528
0.0796426
0.0980691
0.159856
0.143854
0.157742
0.0326551
0.0507857
0.161067
0.143864
0.111098
0.121374
0.0701063
0.13204
0.121827
0.191826
0.0863044
0.0136865
0.186503
0.154368
0.18407
0.00710616
0.151694
0.183155
0.0981513
0.1837
0.103584
0.00452991
0.120676
0.148624
0.162857
0.0912078
0.0135177
0.0461781
0.0363159
0.157372
0.20392
0.0689711
0.208157
0.150239
0.212835
0.104507
0.0568638
0.0681928
0.0217986
0.178691
0.0452703
0.108103
0.192378
0.0170254
0.0477224
0.161699
0.0241315
0.199416
0.130105
0.122283
0.168367
0.018941
0.126813
0.0742949
0.167564
0.0749217
0.165503
0.181082
0.1211
0.201819
0.123705
0.110271
0.0560414
0.117114
0.0457616
0.0541279
0.00687283
0.102625
0.122321
0.0286714
0.066568
0.167591
0.136774
0.0441972
0.184616
0.184497
0.205896
0.208748
0.169164
0.121253
0.116282
0.122783
0.140194
0.0283467
0.197078
0.0930105
0.103268
0.147833
0.0593443
0.00961985
0.134903
0.18305
0.119891
0.190944
0.0854156
0.165653
0.0303239
0.0922884
0.0535298
0.152645
0.12096
0.120098
0.105487
0.0429857
0.164295
0.0753554
0.0127341
0.155443
0.0693551
0.181898
0.0619481
0.185637
0.0899334
0.202142
0.213984
0.0722633
0.0804046
0.102504
0.00534762
0.139749
0.112124
0.140251
0.10805
0.0172669
0.116447
0.193466
0.18292
0.14677
0.0710058
0.0217011
0.0846667
0.191966
0.141799
0.190154
0.020203
0.0913455
0.0507611
0.032937
0.0320401
0.120116
8.71e-05
0.0939882
0.0910053
0.0900205
0.0813823
0.0902412
0.162284
0.161787
0.192745
0.167631
0.0867875
0.0901212
0.0931337
0.194838
0.107388
0.20958
0.173555
0.0755595
0.141602
0.0298126
0.0972606
0.0115207
0.00702981
0.0243111
0.201675
0.0272328
0.115657
0.0376875
0.0601698
0.147697
0.157804
0.0602569
0.0269366
0.0340607
0.150277
0.108319
0.124302
0.0978129
0.0553575
0.102299
0.050696
0.142145
0.19242
0.14383
0.122234
0.0850599
0.138662
0.0810411
0.160619
0.0655155
0.110854
0.0431316
0.0770361
0.117884
0.0674427
0.0639625
0.145116
0.183099
0.10165
0.205286
0.116048
0.0447053
0.0507947
0.142984
0.078766
0.201072
0.0365547
0.203068
0.0841366
0.0919122
0.0906183
0.134833
0.0193088
0.0682901
0.0639138
0.141543
0.15335
0.202575
0.00783592
0.0992209
0.0533424
0.11869
0.142352
0.130379
0.0218248
0.209795
0.194341
0.166941
0.178146
0.0812427
0.157479
0.0794452
0.125948
0.208274
0.007681
0.204714
0.194597
0.0442357
0.193033
0.0639855
0.136148
0.0689035
0.198818
0.155457
0.137194
0.0479835
0.0822515
0.0757951
0.0358105
0.0900874
0.175016
0.0891529
0.208777
0.10262
0.00478306
0.0158535
0.0976669
0.199124
0.182795
0.0610645
0.0656184
0.125525
0.14051
0.191566
0.11905
0.148191
0.181532
0.0988992
0.192426
0.159817
0.162885
0.113826
0.0139723
0.146954
0.0545343
0.151166
0.194938
0.136786
0.0122125
0.0159999
0.0121249
0.187229
0.105153
0.00615357
0.0751003
0.109936
0.0220071
0.172767
0.0943116
0.204802
0.0190833
0.15993
0.115579
0.159593
0.136748
0.0198806
0.0930354
0.103532
0.11878
0.0707134
0.0486006
0.0669161
0.184539
0.0625729
0.21387
0.0243253
0.213739
0.19406
0.161111
0.0112029
0.21006
0.173236
0.198431
0.100464
0.17939
0.0587833
0.2104
0.201397
0.0168021
0.0899634
0.19145
0.0358854
0.035145
0.0922803
0.195478
0.171893
0.112161
0.0737654
0.0606765
0.0161923
0.144479
0.109277
0.0831084
0.11427
0.17185
0.0822304
0.138595
0.17084
0.061542
0.0849581
0.182043
0.0568535
0.0434457
0.165726
0.157318
0.00808695
0.00976119
0.15297
0.209484
0.0265633
0.0281845
0.186185
0.0624487
0.0633296
0.0637173
0.0431788
0.0204743
0.175878
0.116944
0.0811508
0.19207
0.0466747
0.190428
0.0604304
0.160945
0.14753
0.142661
0.0847916
0.103622
0.204203
0.16975
0.0709164
0.0463079
0.213195
0.0218943
0.203626
0.00653397
0.0316555
0.141847
0.00126923
0.0582187
0.170031
0.187455
0.120667
0.0186125
0.0364235
0.163846
0.0390868
0.212302
0.066042
0.120238
0.189624
0.112717
0.0959172
0.0353057
0.0589131
0.0286984
0.177966
0.143705
0.13232
0.167421
0.098706
0.203236
0.213729
0.097153
0.0103822
0.202606
0.103687
0.0420377
0.129705
0.104956
0.100256
0.0849876
0.0776624
0.00617551
0.1036
0.114086
0.170022
0.142687
0.111639
0.0213154
0.0481763
0.0865144
0.134032
0.144093
0.12182
0.192945
0.172792
0.0850382
0.121902
0.0903634
0.0377108
0.00585914
0.0788513
0.0366913
0.103012
0.0892336
0.0245491
0.206699
0.131271
0.154254
0.0969069
0.0167793
0.024493
0.174569
0.0229548
0.128093
0.0739068
0.192977
0.0560318
0.185546
0.214292
0.104208
0.0573121
0.133576
0.0335531
0.179132
0.111773
0.206345
0.049422
0.0189258
0.0819599
0.0871328
0.0247849
0.160811
0.123824
0.127797
0.0352965
0.148373
0.119748
0.166568
0.0878786
0.00190633
0.183347
0.112372
0.176476
0.206302
0.0257165
0.0356341
0.18453
0.0817483
0.00643175
0.184074
0.185956
0.0637438
0.102901
0.00476107
0.0281276
0.214674
0.211106
0.0775496
0.018851
0.0783176
0.164682
0.043636
0.0243805
0.0737582
0.171433
0.0596769
0.00738312
0.0764325
0.0114963
0.0952618
0.0783388
0.194843
0.207633
0.0400661
0.186397
0.0186015
0.0757002
0.156178
0.10035
0.0821319
0.125504
0.0715577
0.145876
0.0136561
0.0763188
0.174003
0.0135813
0.0726764
0.0368046
0.0324323
0.150994
0.201487
0.0760683
0.175374
0.060497
0.0327529
0.020303
0.0678801
0.109185
0.0317993
0.163142
0.187524
0.0118942
0.156027
0.0128419
0.198291
0.174628
0.0885421
0.139721
0.0602298
0.170674
0.050476
0.131788
0.101801
0.0641321
0.208106
0.0610564
0.0777134
0.0660344
0.097861
0.110146
0.00228001
0.0845998
0.186214
0.177654
0.145097
0.00421863
0.197958
0.212977
0.113404
0.0150085
0.16137
0.0861799
0.0269026
0.102649
0.0990218
0.0104451
0.0625289
0.187564
0.150166
0.122759
0.14349
0.200642
0.0397978
0.0305426
0.0500258
0.0331557
0.091599
0.127739
0.0991901
0.18946
0.0231366
0.10147
0.0593115
0.209351
0.0643762
0.204408
0.213569
0.0475854
0.202637
0.112225
0.0625938
0.149259
0.198405
0.0894965
0.0371591
0.0826783
0.0999416
0.099688
0.0554938
0.0353592
0.00769823
0.198983
0.0212529
0.047496
0.0147776
0.0712786
0.0806518
0.106377
0.199018
0.179842
0.0810883
0.0074061
0.0665636
0.1404
0.00200841
0.13094
0.13006
0.000829355
0.178525
0.117948
0.113054
0.0263707
0.0524581
0.0967108
0.115867
0.0896172
0.179389
0.00106041
0.189305
0.0201346
0.0364196
0.197003
0.00436958
0.0576725
0.0297511
0.0191472
0.128951
0.110403
0.125524
0.113221
0.0754963
0.206612
0.120627
0.14206
0.132263
0.122635
0.0582514
0.0475745
0.123464
0.0220283
0.165522
0.0217704
0.048399
0.00323218
0.118481
0.164266
0.0928494
0.083122
0.165327
0.0674062
0.103257
0.201746
0.0496613
0.107626
0.0446703
0.0794124
0.126773
0.173621
0.189815
0.0375488
0.0720937
0.0505632
0.0294124
0.19272
0.192623
0.161676
0.100607
0.0361261
0.20925
0.00932322
0.0581544
0.160024
0.0310937
0.106553
0.163257
0.149575
0.0560712
0.0413576
0.0179486
0.00664935
0.108764
0.121205
0.208396
0.158425
0.014083
0.0383175
0.0230891
0.140856
0.211939
0.212904
0.178405
0.0692842
0.0487192
0.207818
0.0472562
0.0265939
0.154745
0.147863
0.0627201
0.149247
0.157187
0.120874
0.0945229
0.18828
0.0126795
0.0430311
0.123107
0.0687506
0.0843887
0.141055
0.0754
0.193153
0.0475122
0.0690472
0.136829
0.0615953
0.107365
0.159918
0.202452
0.104555
0.158074
0.166108
0.173839
0.206794
0.159178
0.00634733
0.0186392
0.0991743
0.154211
0.0813593
0.0336728
0.0966489
0.202234
0.128196
0.0701807
0.000164861
0.171227
0.193287
0.0689155
0.0408672
0.119595
0.144316
0.0192713
0.167107
0.213363
0.156101
0.0139537
0.105979
0.101271
0.00165701
0.210534
0.0445968
0.167765
0.169625
0.0366421
0.112195
0.175973
0.0552813
0.211369
0.115435
0.136641
0.0302935
0.212084
0.124126
0.158489
0.0675162
0.124291
0.114968
0.0460553
0.193206
0.155835
0.16565
0.122773
0.175106
0.118008
0.121388
0.116459
0.131962
0.0126183
0.00298095
0.133619
0.00840419
0.0475778
0.086636
0.17803
0.0842198
0.198831
0.139254
0.139501
0.195452
0.0399404
0.0613933
0.0109968
0.0372758
0.185519
0.169486
0.104792
0.0950616
0.0697055
0.150847
0.0735195
0.010792
0.101749
0.196293
0.185898
0.0050086
0.102932
0.0876086
0.136971
0.115551
0.0905895
0.0558411
0.123955
0.138167
0.142477
0.0872359
0.00763873
0.12656
0.0117413
0.14714
0.107263
0.0516817
0.208533
0.11826
0.0889575
0.179304
0.0729973
0.19375
0.0596171
0.142703
0.129848
0.133137
0.153495
0.0168488
0.114681
0.124645
0.0218574
0.00286487
0.212253
0.158828
0.118415
0.0880945
0.214669
0.0276218
0.0115134
0.142398
0.114858
0.0191521
0.054209
0.126599
0.166292
0.161472
0.178281
0.160077
0.0649831
0.0524898
0.124632
0.13798
0.0314909
0.184249
0.0659347
0.161339
0.102637
0.00468116
0.178188
0.00257015
0.129326
0.200046
0.00543503
0.126831
0.144125
0.12385
0.000176997
0.144046
0.151472
0.0116904
0.0716953
0.0515815
0.0308425
0.125904
0.17818