/*--------------------------------*- C++ -*----------------------------------*\
| =========                 |                                                 |
| \\      /  F ield         | OpenFOAM: The Open Source CFD Toolbox           |
|  \\    /   O peration     | Version:  2.1.0                                 |
|   \\  /    A nd           | Web:      www.OpenFOAM.org                      |
|    \\/     M anipulation  |                                                 |
\*---------------------------------------------------------------------------*/
FoamFile
{
    version     2.0;
    format      ascii;
    class       volScalarField;
    location    "36135";
    object      kr_o;
}
// * * * * * * * * * * * * * * * * * * * * * * * * * * * * * * * * * * * * * //

dimensions      [0 0 0 0 0 0 0];

internalField   nonuniform List<scalar> 
8000
(
0.0105944
0.0134048
0.0174102
0.0223591
0.0280398
0.0342817
0.0409409
0.0478936
0.0550356
0.0622788
0.0695534
0.0767894
0.0839239
0.0909102
0.0977183
0.104333
0.110749
0.11697
0.123002
0.128862
0.134569
0.140149
0.145625
0.151031
0.1564
0.161776
0.16721
0.172767
0.17853
0.184609
0.191152
0.198368
0.206568
0.216257
0.228338
0.244641
0.269346
0.312735
0.396588
0.515478
0.0134045
0.0162552
0.0202532
0.02516
0.0307793
0.0369552
0.0435552
0.050461
0.0575713
0.0648017
0.0720767
0.0793195
0.0864645
0.0934632
0.100284
0.106911
0.11334
0.119569
0.125606
0.131467
0.13717
0.142736
0.148189
0.153556
0.15887
0.164169
0.169502
0.174932
0.180543
0.186447
0.192797
0.19981
0.207808
0.217301
0.229201
0.245352
0.269964
0.313403
0.397522
0.516104
0.0174099
0.0202532
0.0241964
0.0290139
0.0345346
0.0406146
0.0471312
0.0539752
0.06105
0.0682712
0.0755522
0.0828077
0.0899676
0.0969806
0.103814
0.110452
0.116885
0.123113
0.129142
0.134987
0.140662
0.146186
0.151578
0.15686
0.162059
0.167209
0.172356
0.177561
0.182913
0.18853
0.19458
0.201294
0.209008
0.218242
0.229918
0.245886
0.270379
0.313827
0.39814
0.516523
0.0223589
0.0251599
0.0290139
0.0337242
0.0391311
0.045108
0.0515437
0.0583371
0.0653975
0.0726331
0.0799422
0.0872303
0.0944208
0.101459
0.108313
0.114963
0.121401
0.127623
0.133639
0.139458
0.145093
0.150556
0.155861
0.161022
0.166059
0.170999
0.175881
0.180766
0.185747
0.190956
0.196582
0.202886
0.210222
0.219129
0.230533
0.24629
0.270647
0.314089
0.398569
0.516831
0.0280397
0.0307793
0.0345344
0.039131
0.0444295
0.0503173
0.0566957
0.063475
0.0705662
0.0778604
0.0852411
0.0925996
0.0998511
0.106939
0.113829
0.120503
0.12695
0.133173
0.139178
0.144974
0.150568
0.155967
0.161176
0.166199
0.171045
0.175728
0.180276
0.184745
0.189231
0.193888
0.19894
0.204691
0.211537
0.220033
0.231113
0.246634
0.27085
0.314299
0.398977
0.517153
0.0342814
0.036955
0.0406145
0.045108
0.0503173
0.0561461
0.062513
0.0693397
0.0765285
0.0839564
0.0914846
0.0989798
0.106344
0.11352
0.120474
0.12719
0.133665
0.139905
0.145918
0.151709
0.157281
0.162633
0.16776
0.172654
0.177305
0.181706
0.185867
0.189826
0.193677
0.197597
0.201868
0.206878
0.213081
0.221061
0.231754
0.247013
0.2711
0.314606
0.399571
0.517632
0.0409406
0.0435549
0.0471312
0.0515437
0.0566957
0.0625128
0.0689342
0.075888
0.0832769
0.0909665
0.0987794
0.106524
0.114083
0.121403
0.12846
0.135252
0.141789
0.148081
0.154138
0.159964
0.165558
0.170912
0.17601
0.180823
0.18532
0.18946
0.193214
0.19658
0.199632
0.202561
0.205739
0.20972
0.215058
0.222371
0.232593
0.247559
0.271539
0.315192
0.400599
0.518435
0.0478934
0.0504609
0.0539752
0.0583372
0.0634751
0.0693396
0.075888
0.0830718
0.0908209
0.0990063
0.107378
0.115568
0.123447
0.13099
0.13821
0.145135
0.15179
0.158195
0.164364
0.170303
0.176007
0.181462
0.186639
0.191492
0.195954
0.199938
0.203344
0.206087
0.208154
0.209717
0.211262
0.213711
0.217802
0.224202
0.233816
0.24844
0.27234
0.316264
0.402336
0.519723
0.0550354
0.0575711
0.0610499
0.0653976
0.070566
0.0765285
0.0832769
0.0908209
0.0991811
0.108333
0.117954
0.126942
0.135322
0.143205
0.150689
0.157845
0.164722
0.171355
0.177767
0.183968
0.189956
0.195712
0.201199
0.206352
0.211068
0.215195
0.218522
0.220782
0.221725
0.221311
0.220093
0.219879
0.221906
0.226909
0.235667
0.249851
0.273692
0.318044
0.405057
0.521633
0.0622784
0.0648014
0.0682711
0.0726332
0.0778604
0.0839564
0.0909666
0.0990064
0.108333
0.119501
0.133239
0.143632
0.152794
0.161244
0.169217
0.176843
0.184209
0.191372
0.198372
0.205234
0.211969
0.218568
0.224999
0.231192
0.237017
0.242253
0.246526
0.24922
0.249376
0.24581
0.238225
0.231062
0.228541
0.231006
0.238421
0.251986
0.27577
0.320732
0.409006
0.524238
0.0695529
0.0720764
0.0755523
0.0799424
0.085241
0.0914847
0.0987795
0.107378
0.117954
0.133239
0.485334
0.500516
0.493571
0.489631
0.487799
0.48731
0.487746
0.488837
0.490394
0.492259
0.494299
0.49638
0.498347
0.500021
0.501148
0.501316
0.499746
0.494671
0.481001
0.442469
0.244412
0.237108
0.234087
0.235434
0.241852
0.25486
0.278663
0.324465
0.414353
0.527519
0.076789
0.0793194
0.0828079
0.0872303
0.0925996
0.0989799
0.106524
0.115568
0.126942
0.143632
0.500516
0.556787
0.558474
0.557848
0.557426
0.557209
0.557145
0.557193
0.557321
0.557499
0.557706
0.557918
0.558113
0.558263
0.558338
0.55829
0.558011
0.557271
0.5554
0.550471
0.25124
0.242452
0.239166
0.239959
0.245745
0.25838
0.282364
0.329298
0.421172
0.531352
0.0839234
0.0864644
0.0899676
0.0944206
0.0998512
0.106344
0.114083
0.123447
0.135322
0.152794
0.493569
0.558474
0.562246
0.562332
0.562307
0.56229
0.562285
0.562282
0.562286
0.562293
0.562301
0.562311
0.56232
0.562327
0.562328
0.562326
0.562312
0.562275
0.562191
0.562018
0.258031
0.247677
0.244116
0.244573
0.249974
0.262438
0.286815
0.33523
0.429443
0.53553
0.09091
0.093463
0.0969805
0.101459
0.106939
0.11352
0.121403
0.13099
0.143205
0.161245
0.489631
0.557848
0.562332
0.562492
0.562494
0.562493
0.562493
0.562493
0.562493
0.562493
0.562493
0.562495
0.562495
0.562495
0.562495
0.562495
0.562494
0.562493
0.562492
0.562486
0.264837
0.252946
0.249083
0.249297
0.254474
0.26695
0.29195
0.342231
0.439064
0.539805
0.0977184
0.100284
0.103814
0.108313
0.113829
0.120474
0.128461
0.138211
0.150689
0.169217
0.487799
0.557426
0.562307
0.562494
0.5625
0.5625
0.5625
0.5625
0.5625
0.5625
0.5625
0.5625
0.5625
0.5625
0.5625
0.5625
0.5625
0.5625
0.5625
0.5625
0.271687
0.258317
0.254134
0.25415
0.259212
0.271859
0.297719
0.350279
0.449862
0.543932
0.104333
0.106911
0.110452
0.114963
0.120503
0.12719
0.135252
0.145135
0.157845
0.176844
0.48731
0.557209
0.56229
0.562493
0.5625
0.5625
0.5625
0.5625
0.5625
0.5625
0.5625
0.5625
0.5625
0.5625
0.5625
0.5625
0.5625
0.5625
0.5625
0.5625
0.278605
0.263819
0.259304
0.259146
0.264173
0.277133
0.304089
0.359364
0.461572
0.547704
0.11075
0.11334
0.116885
0.121401
0.126951
0.133665
0.141789
0.15179
0.164722
0.18421
0.487746
0.557145
0.562285
0.562493
0.5625
0.5625
0.5625
0.5625
0.5625
0.5625
0.5625
0.5625
0.5625
0.5625
0.5625
0.5625
0.5625
0.5625
0.5625
0.5625
0.285618
0.269478
0.264618
0.264301
0.269359
0.282759
0.311054
0.369488
0.473831
0.550984
0.116971
0.119569
0.123113
0.127624
0.133173
0.139906
0.148081
0.158195
0.171356
0.191373
0.488836
0.557193
0.562282
0.562493
0.5625
0.5625
0.5625
0.5625
0.5625
0.5625
0.5625
0.5625
0.5625
0.5625
0.5625
0.5625
0.5625
0.5625
0.5625
0.5625
0.29276
0.275321
0.270102
0.269637
0.274781
0.288744
0.318628
0.380651
0.486178
0.553707
0.123002
0.125607
0.129143
0.133639
0.139178
0.145918
0.154138
0.164364
0.177768
0.198372
0.490394
0.557321
0.562286
0.562493
0.5625
0.5625
0.5625
0.5625
0.5625
0.5625
0.5625
0.5625
0.5625
0.5625
0.5625
0.5625
0.5625
0.5625
0.5625
0.5625
0.300076
0.281384
0.275788
0.275182
0.280462
0.295104
0.326841
0.39281
0.498092
0.555876
0.128862
0.131468
0.134987
0.139458
0.144974
0.151709
0.159964
0.170303
0.183969
0.205235
0.492259
0.557499
0.562293
0.562493
0.5625
0.5625
0.5625
0.5625
0.5625
0.5625
0.5625
0.5625
0.5625
0.5625
0.5625
0.5625
0.5625
0.5625
0.5625
0.5625
0.307621
0.287717
0.281717
0.280974
0.286436
0.301872
0.335733
0.405826
0.509075
0.557543
0.134569
0.13717
0.140663
0.145093
0.150568
0.157281
0.165559
0.176007
0.189956
0.211969
0.494299
0.557708
0.562301
0.562493
0.5625
0.5625
0.5625
0.5625
0.5625
0.5625
0.5625
0.5625
0.5625
0.5625
0.5625
0.5625
0.5625
0.5625
0.5625
0.5625
0.315465
0.294383
0.287947
0.287066
0.292748
0.309085
0.345339
0.419467
0.518731
0.558784
0.140148
0.142736
0.146187
0.150556
0.155967
0.162633
0.170913
0.181462
0.195712
0.218568
0.49638
0.557918
0.562311
0.562495
0.5625
0.5625
0.5625
0.5625
0.5625
0.5625
0.5625
0.5625
0.5625
0.5625
0.5625
0.5625
0.5625
0.5625
0.5625
0.5625
0.323705
0.301475
0.294558
0.293528
0.299457
0.316787
0.355661
0.433332
0.526823
0.559681
0.145625
0.14819
0.151579
0.155861
0.161176
0.16776
0.17601
0.18664
0.2012
0.224999
0.498347
0.558113
0.56232
0.562495
0.5625
0.5625
0.5625
0.5625
0.5625
0.5625
0.5625
0.5625
0.5625
0.5625
0.5625
0.5625
0.5625
0.5625
0.5625
0.5625
0.332476
0.309123
0.301661
0.300458
0.306636
0.325016
0.366628
0.446822
0.533277
0.560311
0.151031
0.153557
0.156861
0.161022
0.166199
0.172654
0.180824
0.191492
0.206352
0.231192
0.500021
0.558263
0.562327
0.562495
0.5625
0.5625
0.5625
0.5625
0.5625
0.5625
0.5625
0.5625
0.5625
0.5625
0.5625
0.5625
0.5625
0.5625
0.5625
0.5625
0.341967
0.317516
0.30942
0.307985
0.314372
0.333797
0.378048
0.459238
0.538149
0.560735
0.1564
0.158871
0.16206
0.16606
0.171045
0.177305
0.18532
0.195954
0.211068
0.237017
0.501148
0.558338
0.562328
0.562495
0.5625
0.5625
0.5625
0.5625
0.5625
0.5625
0.5625
0.5625
0.5625
0.5625
0.5625
0.5625
0.5625
0.5625
0.5625
0.5625
0.352456
0.326934
0.31807
0.31629
0.322775
0.343122
0.389568
0.469936
0.541575
0.560997
0.161776
0.16417
0.16721
0.170999
0.175728
0.181707
0.189461
0.199938
0.215195
0.242253
0.501315
0.55829
0.562326
0.562495
0.5625
0.5625
0.5625
0.5625
0.5625
0.5625
0.5625
0.5625
0.5625
0.5625
0.5625
0.5625
0.5625
0.5625
0.5625
0.5625
0.364351
0.337797
0.327963
0.325628
0.331981
0.35294
0.400684
0.478458
0.543708
0.561126
0.16721
0.169503
0.172356
0.175881
0.180276
0.185868
0.193214
0.203344
0.218522
0.246526
0.499746
0.558011
0.562312
0.562494
0.5625
0.5625
0.5625
0.5625
0.5625
0.5625
0.5625
0.5625
0.5625
0.5625
0.5625
0.5625
0.5625
0.5625
0.5625
0.5625
0.378247
0.350759
0.339636
0.336376
0.342178
0.363165
0.410846
0.484595
0.544683
0.561134
0.172767
0.174933
0.177562
0.180767
0.184745
0.189826
0.196581
0.206087
0.220783
0.24922
0.494671
0.557271
0.562275
0.562493
0.5625
0.5625
0.5625
0.5625
0.5625
0.5625
0.5625
0.5625
0.5625
0.5625
0.5625
0.5625
0.5625
0.5625
0.5625
0.5625
0.394989
0.366834
0.353922
0.349102
0.353656
0.373727
0.41964
0.488378
0.544589
0.561014
0.178531
0.180543
0.182913
0.185747
0.189231
0.193677
0.199632
0.208155
0.221725
0.249376
0.481001
0.5554
0.562191
0.562492
0.5625
0.5625
0.5625
0.5625
0.5625
0.5625
0.5625
0.5625
0.5625
0.5625
0.5625
0.5625
0.5625
0.5625
0.5625
0.5625
0.4157
0.387587
0.372109
0.364689
0.366898
0.384697
0.42699
0.490073
0.543486
0.560743
0.184609
0.186447
0.18853
0.190956
0.193888
0.197597
0.202561
0.209718
0.221311
0.24581
0.442467
0.550471
0.562018
0.562486
0.5625
0.5625
0.5625
0.5625
0.5625
0.5625
0.5625
0.5625
0.5625
0.5625
0.5625
0.5625
0.5625
0.5625
0.5625
0.5625
0.441912
0.41528
0.396076
0.384452
0.382717
0.396472
0.433296
0.490228
0.54148
0.560288
0.191152
0.192797
0.19458
0.196583
0.19894
0.201868
0.205739
0.211263
0.220093
0.238225
0.244412
0.25124
0.258032
0.264837
0.271687
0.278605
0.285617
0.29276
0.300076
0.30762
0.315464
0.323705
0.332475
0.341966
0.352455
0.36435
0.378246
0.394988
0.415699
0.441911
0.461439
0.448048
0.426718
0.409697
0.402216
0.409914
0.439463
0.4898
0.538893
0.559623
0.198368
0.199811
0.201295
0.202886
0.204692
0.206878
0.209721
0.213711
0.219879
0.231062
0.237109
0.242453
0.247678
0.252947
0.258317
0.26382
0.269478
0.275321
0.281384
0.287717
0.294383
0.301475
0.309123
0.317516
0.326933
0.337797
0.350758
0.366833
0.387586
0.415278
0.448047
0.461826
0.453764
0.437553
0.425346
0.425923
0.446725
0.489232
0.535899
0.558643
0.206568
0.207808
0.209008
0.210222
0.211537
0.213081
0.215058
0.217802
0.221907
0.228541
0.234087
0.239167
0.244117
0.249084
0.254134
0.259304
0.264618
0.270102
0.275788
0.281717
0.287947
0.294558
0.301661
0.30942
0.31807
0.327963
0.339635
0.353921
0.372108
0.396075
0.426717
0.453763
0.465007
0.460014
0.44902
0.444271
0.456095
0.489502
0.532353
0.557258
0.216257
0.217301
0.218243
0.21913
0.220034
0.221062
0.222372
0.224202
0.22691
0.231006
0.235434
0.239959
0.244573
0.249297
0.25415
0.259146
0.264301
0.269637
0.275182
0.280974
0.287066
0.293528
0.300458
0.307985
0.31629
0.325628
0.336375
0.349101
0.364688
0.384451
0.409695
0.437552
0.460013
0.469743
0.467467
0.462596
0.467543
0.491473
0.528819
0.555411
0.228338
0.229201
0.229918
0.230533
0.231113
0.231755
0.232593
0.233816
0.235667
0.238421
0.241853
0.245745
0.249974
0.254474
0.259212
0.264174
0.26936
0.274782
0.280463
0.286436
0.292748
0.299457
0.306636
0.314372
0.322775
0.331981
0.342178
0.353656
0.366898
0.382716
0.402215
0.425345
0.449019
0.467467
0.476088
0.476871
0.479414
0.495313
0.525909
0.553109
0.244641
0.245353
0.245887
0.246291
0.246634
0.247013
0.24756
0.24844
0.249852
0.251987
0.254861
0.25838
0.262439
0.26695
0.271859
0.277133
0.282759
0.288744
0.295104
0.301872
0.309085
0.316786
0.325016
0.333796
0.343121
0.35294
0.363165
0.373727
0.384696
0.396472
0.409914
0.425922
0.44427
0.462595
0.47687
0.484558
0.489109
0.50016
0.523975
0.550422
0.269346
0.269964
0.270379
0.270647
0.27085
0.2711
0.271539
0.27234
0.273692
0.27577
0.278663
0.282364
0.286815
0.29195
0.297719
0.304089
0.311054
0.318627
0.326841
0.335733
0.345339
0.355661
0.366628
0.378048
0.389568
0.400683
0.410845
0.419639
0.42699
0.433295
0.439463
0.446724
0.456094
0.467542
0.479414
0.489109
0.49603
0.505001
0.523062
0.547484
0.312735
0.313403
0.313828
0.314089
0.3143
0.314607
0.315192
0.316265
0.318044
0.320732
0.324465
0.329299
0.33523
0.342231
0.350279
0.359364
0.369488
0.380651
0.39281
0.405826
0.419467
0.433332
0.446822
0.459238
0.469936
0.478458
0.484595
0.488377
0.490072
0.490228
0.489799
0.489232
0.489502
0.491473
0.495313
0.50016
0.505001
0.511274
0.523888
0.544727
0.396588
0.397522
0.39814
0.39857
0.398977
0.399571
0.4006
0.402336
0.405057
0.409006
0.414354
0.421173
0.429443
0.439064
0.449862
0.461572
0.473831
0.486178
0.498093
0.509076
0.518732
0.526823
0.533277
0.538149
0.541575
0.543708
0.544683
0.544589
0.543486
0.54148
0.538893
0.535899
0.532353
0.528819
0.525909
0.523975
0.523062
0.523888
0.529479
0.543789
0.515478
0.516105
0.516523
0.516832
0.517153
0.517633
0.518435
0.519723
0.521633
0.524238
0.527519
0.531352
0.53553
0.539805
0.543932
0.547704
0.550984
0.553707
0.555876
0.557543
0.558784
0.559681
0.560311
0.560735
0.560997
0.561126
0.561134
0.561014
0.560743
0.560288
0.559623
0.558643
0.557258
0.555411
0.553109
0.550422
0.547484
0.544727
0.543789
0.548571
0.00225937
0.0039725
0.00694129
0.0110723
0.016135
0.0219006
0.0281734
0.0347879
0.0416064
0.0485155
0.0554253
0.0622706
0.0690083
0.0756007
0.082019
0.0882472
0.0942807
0.100125
0.105793
0.111295
0.116649
0.121875
0.126998
0.132044
0.137046
0.142041
0.147074
0.152204
0.157502
0.163061
0.169004
0.175499
0.182784
0.191212
0.201337
0.214092
0.231303
0.257869
0.312246
0.443046
0.00397212
0.00600989
0.00922819
0.0134887
0.0185967
0.0243637
0.030618
0.0372103
0.04401
0.0509076
0.0578157
0.0646703
0.0714238
0.0780335
0.0844685
0.0907117
0.096758
0.102613
0.108287
0.113789
0.119136
0.124346
0.129441
0.134444
0.139385
0.144298
0.149227
0.154226
0.159368
0.16475
0.1705
0.176795
0.183878
0.192113
0.202058
0.214655
0.231734
0.258195
0.312536
0.443431
0.00694101
0.00922822
0.0126168
0.0169487
0.0220605
0.0277948
0.0340042
0.0405538
0.0473224
0.054204
0.0611119
0.0679807
0.0747526
0.081379
0.0878272
0.0940792
0.10013
0.105985
0.11165
0.117134
0.12245
0.127615
0.132644
0.137558
0.142381
0.147144
0.151886
0.156663
0.161551
0.166654
0.172115
0.178122
0.184935
0.192925
0.20266
0.215086
0.232033
0.258392
0.312672
0.443611
0.0110721
0.0134887
0.0169487
0.0212921
0.0263734
0.0320557
0.0382118
0.0447195
0.0514657
0.0583471
0.0652766
0.0721781
0.0789811
0.0856322
0.092097
0.0983582
0.104412
0.110261
0.115909
0.121362
0.126633
0.13173
0.136667
0.141456
0.146114
0.150665
0.155146
0.159611
0.164142
0.168856
0.173917
0.179537
0.186
0.193688
0.203179
0.215419
0.232236
0.258503
0.312724
0.443699
0.016135
0.0185966
0.0220603
0.0263732
0.0314027
0.0370289
0.0431405
0.0496271
0.0563831
0.0633072
0.0703033
0.0772728
0.0841329
0.0908265
0.0973197
0.103598
0.109661
0.115505
0.121135
0.126557
0.131777
0.1368
0.14163
0.146272
0.150733
0.155026
0.159179
0.163242
0.167302
0.171496
0.17602
0.181131
0.187143
0.194461
0.203667
0.215707
0.232397
0.25859
0.312783
0.443838
0.0219004
0.0243635
0.0277947
0.0320557
0.0370289
0.0426111
0.0487049
0.0552151
0.0620448
0.0690903
0.0762258
0.0833226
0.0902839
0.0970509
0.103595
0.109911
0.115992
0.121843
0.127466
0.132867
0.138047
0.143005
0.147735
0.152231
0.156484
0.160491
0.164261
0.167832
0.171293
0.174801
0.178607
0.183042
0.188474
0.195332
0.204201
0.216021
0.23259
0.258734
0.312965
0.4442
0.0281731
0.0306177
0.034004
0.0382116
0.0431402
0.0487049
0.0548283
0.0614362
0.068447
0.0757388
0.0831401
0.0904641
0.0975961
0.104485
0.11112
0.117497
0.123623
0.129503
0.135145
0.140552
0.145722
0.150647
0.155311
0.159692
0.163762
0.167488
0.17085
0.173852
0.176566
0.179167
0.181984
0.185496
0.190158
0.196429
0.204891
0.216461
0.232909
0.259035
0.313405
0.444986
0.0347879
0.03721
0.0405537
0.0447195
0.0496271
0.0552151
0.0614363
0.0682524
0.0756017
0.0833574
0.0912752
0.0990012
0.106413
0.113497
0.12027
0.12675
0.132957
0.138908
0.144613
0.150077
0.155294
0.160251
0.164923
0.16927
0.173238
0.176755
0.179745
0.182144
0.183954
0.185334
0.186713
0.188885
0.192462
0.197944
0.205884
0.217152
0.233469
0.259607
0.314252
0.446402
0.0416065
0.0440097
0.0473224
0.0514658
0.0563832
0.0620449
0.0684471
0.0756017
0.083523
0.0921763
0.101245
0.10969
0.117542
0.124917
0.131895
0.138539
0.14489
0.150979
0.156823
0.162431
0.167799
0.17291
0.177733
0.182212
0.186267
0.189779
0.192584
0.194482
0.195286
0.194981
0.19404
0.193983
0.195834
0.200147
0.207366
0.218236
0.23439
0.260563
0.315651
0.448646
0.0485154
0.0509076
0.0542041
0.0583473
0.0633074
0.0690905
0.0757389
0.0833575
0.0921764
0.102696
0.115561
0.125242
0.13374
0.141538
0.148842
0.15577
0.162399
0.168776
0.174933
0.180888
0.186645
0.192193
0.197501
0.202511
0.207125
0.211183
0.214425
0.216425
0.216513
0.213826
0.208093
0.20273
0.201065
0.203388
0.209529
0.219847
0.235777
0.261999
0.317725
0.451876
0.0554251
0.0578157
0.0611121
0.0652768
0.0703036
0.076226
0.0831403
0.0912754
0.101245
0.11556
0.470026
0.485118
0.475495
0.469349
0.465675
0.463558
0.462499
0.462198
0.462431
0.463024
0.463821
0.464661
0.465364
0.465698
0.465341
0.463766
0.459989
0.451749
0.432593
0.384143
0.213417
0.207567
0.205446
0.206873
0.212197
0.221982
0.23767
0.263964
0.320554
0.456184
0.0622704
0.0646701
0.0679807
0.0721784
0.0772731
0.0833229
0.0904644
0.0990015
0.10969
0.125242
0.485118
0.553718
0.556083
0.554878
0.553935
0.553286
0.552865
0.552622
0.552511
0.552494
0.552531
0.552589
0.552621
0.552579
0.552387
0.551927
0.55096
0.548941
0.544335
0.532894
0.219703
0.21189
0.209448
0.21041
0.215191
0.224553
0.240035
0.266448
0.324167
0.461578
0.0690081
0.0714237
0.0747525
0.0789814
0.0841333
0.0902841
0.0975965
0.106413
0.117542
0.133741
0.475494
0.556083
0.562029
0.562175
0.562114
0.562064
0.562026
0.562002
0.561988
0.561982
0.561977
0.561977
0.561977
0.561973
0.561957
0.561924
0.561859
0.561729
0.561454
0.5609
0.225745
0.216055
0.213305
0.213977
0.218402
0.227461
0.242801
0.269402
0.32855
0.467986
0.0756005
0.0780333
0.0813791
0.0856324
0.0908267
0.097051
0.104486
0.113498
0.124917
0.141538
0.469349
0.554878
0.562175
0.562479
0.562487
0.562484
0.562481
0.56248
0.56248
0.562479
0.562481
0.56248
0.56248
0.56248
0.562479
0.562476
0.562474
0.56247
0.56246
0.562446
0.2316
0.220165
0.217112
0.217578
0.221765
0.230623
0.245889
0.272757
0.33367
0.475267
0.082019
0.0844684
0.0878275
0.0920973
0.09732
0.103596
0.11112
0.120271
0.131895
0.148842
0.465675
0.553935
0.562114
0.562487
0.5625
0.5625
0.5625
0.5625
0.5625
0.5625
0.5625
0.5625
0.5625
0.5625
0.5625
0.5625
0.562499
0.562499
0.562499
0.562499
0.23732
0.224255
0.220909
0.221214
0.22524
0.233974
0.249226
0.276441
0.339491
0.48322
0.0882475
0.0907119
0.0940797
0.0983586
0.103599
0.109911
0.117498
0.126751
0.138539
0.15577
0.463558
0.553286
0.562064
0.562484
0.5625
0.5625
0.5625
0.5625
0.5625
0.5625
0.5625
0.5625
0.5625
0.5625
0.5625
0.5625
0.5625
0.5625
0.5625
0.5625
0.242936
0.228342
0.224718
0.224888
0.228805
0.23747
0.252749
0.280389
0.345994
0.491597
0.0942811
0.0967583
0.100131
0.104413
0.109661
0.115993
0.123623
0.132958
0.14489
0.162399
0.462499
0.552865
0.562026
0.562481
0.5625
0.5625
0.5625
0.5625
0.5625
0.5625
0.5625
0.5625
0.5625
0.5625
0.5625
0.5625
0.5625
0.5625
0.5625
0.5625
0.248472
0.232441
0.228549
0.228604
0.232444
0.241074
0.256403
0.284549
0.353177
0.500112
0.100126
0.102614
0.105986
0.110262
0.115505
0.121843
0.129504
0.138909
0.150979
0.168776
0.462198
0.552622
0.562002
0.56248
0.5625
0.5625
0.5625
0.5625
0.5625
0.5625
0.5625
0.5625
0.5625
0.5625
0.5625
0.5625
0.5625
0.5625
0.5625
0.5625
0.253949
0.236568
0.232416
0.232367
0.236148
0.244758
0.26014
0.288882
0.361063
0.508463
0.105794
0.108287
0.111651
0.115909
0.121135
0.127467
0.135146
0.144614
0.156824
0.174933
0.462431
0.552511
0.561988
0.56248
0.5625
0.5625
0.5625
0.5625
0.5625
0.5625
0.5625
0.5625
0.5625
0.5625
0.5625
0.5625
0.5625
0.5625
0.5625
0.5625
0.259389
0.240741
0.236333
0.236184
0.239912
0.248499
0.263916
0.293367
0.369684
0.516358
0.111295
0.11379
0.117135
0.121363
0.126557
0.132867
0.140553
0.150077
0.162432
0.180888
0.463025
0.552494
0.561982
0.562479
0.5625
0.5625
0.5625
0.5625
0.5625
0.5625
0.5625
0.5625
0.5625
0.5625
0.5625
0.5625
0.5625
0.5625
0.5625
0.5625
0.264814
0.244986
0.240316
0.240065
0.243733
0.252273
0.267684
0.298
0.379058
0.523548
0.116649
0.119136
0.122451
0.126633
0.131777
0.138047
0.145723
0.155294
0.167799
0.186645
0.463821
0.552531
0.561977
0.562481
0.5625
0.5625
0.5625
0.5625
0.5625
0.5625
0.5625
0.5625
0.5625
0.5625
0.5625
0.5625
0.5625
0.5625
0.5625
0.5625
0.27025
0.249333
0.244388
0.244022
0.247607
0.256054
0.271397
0.302744
0.389139
0.52985
0.121876
0.124346
0.127615
0.131731
0.1368
0.143005
0.150647
0.160251
0.172911
0.192193
0.464661
0.552589
0.561977
0.56248
0.5625
0.5625
0.5625
0.5625
0.5625
0.5625
0.5625
0.5625
0.5625
0.5625
0.5625
0.5625
0.5625
0.5625
0.5625
0.5625
0.275724
0.253819
0.248575
0.248069
0.251529
0.259812
0.275002
0.307533
0.399755
0.535151
0.126998
0.129441
0.132644
0.136667
0.14163
0.147735
0.155312
0.164923
0.177733
0.197501
0.465364
0.552621
0.561977
0.56248
0.5625
0.5625
0.5625
0.5625
0.5625
0.5625
0.5625
0.5625
0.5625
0.5625
0.5625
0.5625
0.5625
0.5625
0.5625
0.5625
0.281265
0.258493
0.25291
0.252221
0.25549
0.263509
0.278444
0.312295
0.410526
0.5394
0.132044
0.134445
0.137558
0.141456
0.146273
0.152232
0.159693
0.16927
0.182213
0.202511
0.465698
0.552579
0.561973
0.56248
0.5625
0.5625
0.5625
0.5625
0.5625
0.5625
0.5625
0.5625
0.5625
0.5625
0.5625
0.5625
0.5625
0.5625
0.5625
0.5625
0.286906
0.263416
0.257433
0.256494
0.259481
0.267104
0.28167
0.316933
0.420834
0.542592
0.137046
0.139386
0.142381
0.146114
0.150734
0.156485
0.163762
0.173238
0.186268
0.207125
0.46534
0.552387
0.561957
0.562479
0.5625
0.5625
0.5625
0.5625
0.5625
0.5625
0.5625
0.5625
0.5625
0.5625
0.5625
0.5625
0.5625
0.5625
0.5625
0.5625
0.292676
0.268665
0.262197
0.260909
0.263488
0.270555
0.284631
0.3213
0.429854
0.544741
0.142041
0.144299
0.147144
0.150666
0.155027
0.160491
0.167489
0.176756
0.189779
0.211183
0.463766
0.551927
0.561924
0.562476
0.5625
0.5625
0.5625
0.5625
0.5625
0.5625
0.5625
0.5625
0.5625
0.5625
0.5625
0.5625
0.5625
0.5625
0.5625
0.5625
0.298603
0.274343
0.267274
0.265495
0.267502
0.273822
0.287287
0.325186
0.436701
0.545851
0.147075
0.149227
0.151886
0.155147
0.159179
0.164261
0.17085
0.179746
0.192584
0.214425
0.459989
0.55096
0.561859
0.562474
0.562499
0.5625
0.5625
0.5625
0.5625
0.5625
0.5625
0.5625
0.5625
0.5625
0.5625
0.5625
0.5625
0.5625
0.5625
0.5625
0.3047
0.28059
0.272771
0.270301
0.271529
0.276888
0.289604
0.328308
0.440609
0.545886
0.152205
0.154226
0.156663
0.159612
0.163242
0.167833
0.173853
0.182144
0.194482
0.216425
0.451749
0.548941
0.561729
0.56247
0.562499
0.5625
0.5625
0.5625
0.5625
0.5625
0.5625
0.5625
0.5625
0.5625
0.5625
0.5625
0.5625
0.5625
0.5625
0.5625
0.310981
0.287628
0.278871
0.27543
0.275615
0.27978
0.291557
0.33035
0.441076
0.544726
0.157503
0.159369
0.161551
0.164142
0.167302
0.171293
0.176566
0.183954
0.195286
0.216513
0.432593
0.544335
0.561454
0.56246
0.562499
0.5625
0.5625
0.5625
0.5625
0.5625
0.5625
0.5625
0.5625
0.5625
0.5625
0.5625
0.5625
0.5625
0.5625
0.5625
0.317541
0.29589
0.285944
0.281118
0.27991
0.282609
0.293158
0.331029
0.437917
0.54214
0.163061
0.164751
0.166655
0.168857
0.171496
0.174802
0.179167
0.185334
0.194982
0.213826
0.384144
0.532894
0.5609
0.562446
0.562499
0.5625
0.5625
0.5625
0.5625
0.5625
0.5625
0.5625
0.5625
0.5625
0.5625
0.5625
0.5625
0.5625
0.5625
0.5625
0.325023
0.306457
0.294888
0.287975
0.284813
0.285666
0.294538
0.330167
0.43125
0.53778
0.169005
0.170501
0.172115
0.173917
0.17602
0.178607
0.181984
0.186713
0.19404
0.208093
0.213417
0.219704
0.225746
0.2316
0.23732
0.242937
0.248472
0.253949
0.259389
0.264815
0.270251
0.275724
0.281266
0.286906
0.292676
0.298603
0.3047
0.310981
0.31754
0.325023
0.329862
0.319518
0.306965
0.297213
0.291236
0.289594
0.29612
0.327955
0.421197
0.531018
0.1755
0.176795
0.178123
0.179538
0.181131
0.183042
0.185496
0.188885
0.193983
0.20273
0.207568
0.21189
0.216056
0.220165
0.224255
0.228343
0.232442
0.236568
0.240742
0.244986
0.249333
0.253819
0.258493
0.263416
0.268665
0.274342
0.28059
0.287628
0.29589
0.306456
0.319518
0.32323
0.317354
0.30803
0.299827
0.295313
0.298749
0.325552
0.408909
0.521396
0.182785
0.183879
0.184936
0.186
0.187144
0.188474
0.190158
0.192462
0.195834
0.201065
0.205447
0.209449
0.213305
0.217112
0.22091
0.224718
0.22855
0.232416
0.236333
0.240316
0.244388
0.248575
0.25291
0.257433
0.262197
0.267274
0.272771
0.278871
0.285944
0.294887
0.306965
0.317354
0.320627
0.316751
0.309522
0.30326
0.303458
0.324347
0.396349
0.508879
0.191213
0.192113
0.192926
0.193689
0.194462
0.195332
0.19643
0.197944
0.200147
0.203389
0.206873
0.21041
0.213978
0.217578
0.221214
0.224889
0.228605
0.232367
0.236184
0.240065
0.244022
0.248069
0.252221
0.256494
0.260909
0.265495
0.270301
0.27543
0.281118
0.287975
0.297213
0.308029
0.31675
0.319987
0.317567
0.312548
0.310846
0.325909
0.385722
0.494313
0.201337
0.202058
0.20266
0.203179
0.203667
0.204202
0.204892
0.205884
0.207366
0.209529
0.212197
0.215192
0.218402
0.221765
0.225241
0.228806
0.232444
0.236148
0.239913
0.243733
0.247607
0.251529
0.255491
0.259481
0.263488
0.267502
0.271529
0.275615
0.27991
0.284813
0.291236
0.299827
0.309522
0.317567
0.321439
0.321064
0.320456
0.331409
0.379388
0.479678
0.214092
0.214655
0.215086
0.21542
0.215707
0.216022
0.216461
0.217152
0.218237
0.219847
0.221982
0.224554
0.227462
0.230623
0.233975
0.237471
0.241074
0.244759
0.2485
0.252274
0.256055
0.259812
0.263509
0.267104
0.270555
0.273822
0.276889
0.27978
0.282609
0.285666
0.289594
0.295313
0.30326
0.312548
0.321064
0.326869
0.330794
0.341043
0.379298
0.467847
0.231303
0.231734
0.232033
0.232236
0.232397
0.23259
0.23291
0.233469
0.23439
0.235778
0.237671
0.240036
0.242802
0.24589
0.249227
0.25275
0.256404
0.260141
0.263916
0.267685
0.271397
0.275002
0.278445
0.281671
0.284632
0.287287
0.289604
0.291557
0.293158
0.294538
0.296121
0.298749
0.303458
0.310846
0.320456
0.330794
0.340774
0.354063
0.386364
0.461741
0.257869
0.258196
0.258393
0.258504
0.25859
0.258734
0.259036
0.259607
0.260564
0.262
0.263965
0.266449
0.269403
0.272758
0.276441
0.28039
0.28455
0.288883
0.293367
0.298
0.302744
0.307533
0.312295
0.316933
0.3213
0.325186
0.328308
0.33035
0.331029
0.330167
0.327955
0.325552
0.324347
0.32591
0.331409
0.341043
0.354063
0.371111
0.400819
0.463418
0.312246
0.312536
0.312672
0.312724
0.312783
0.312965
0.313405
0.314252
0.315651
0.317725
0.320555
0.324168
0.328551
0.33367
0.339492
0.345994
0.353178
0.361064
0.369684
0.379058
0.38914
0.399755
0.410526
0.420833
0.429854
0.436701
0.440609
0.441076
0.437917
0.43125
0.421198
0.408909
0.396349
0.385722
0.379389
0.379298
0.386364
0.400819
0.426019
0.474818
0.443046
0.443431
0.443611
0.443699
0.443838
0.444201
0.444986
0.446402
0.448646
0.451876
0.456184
0.461578
0.467986
0.475267
0.48322
0.491597
0.500112
0.508463
0.516358
0.523548
0.52985
0.535151
0.5394
0.542592
0.544741
0.545851
0.545886
0.544726
0.54214
0.53778
0.531018
0.521396
0.50888
0.494314
0.479679
0.467847
0.461741
0.463418
0.474818
0.502255
0.000159544
0.000694178
0.00237306
0.0055214
0.00990662
0.0152001
0.0211304
0.0274801
0.0340775
0.0407858
0.0475008
0.0541458
0.0606703
0.0670464
0.073255
0.0792816
0.0851206
0.0907746
0.0962532
0.10157
0.106741
0.111784
0.116722
0.12158
0.126387
0.131178
0.135995
0.140891
0.14593
0.151195
0.156794
0.162872
0.169626
0.17734
0.186451
0.197727
0.212845
0.236608
0.285388
0.410204
0.000693939
0.00175097
0.00401953
0.00754484
0.0121162
0.0174907
0.0234492
0.0298042
0.0363993
0.0431064
0.0498243
0.0564777
0.0630173
0.0694137
0.075642
0.0816857
0.0875384
0.0932017
0.0986854
0.104
0.109161
0.114184
0.119088
0.123898
0.128638
0.133341
0.138047
0.142807
0.147687
0.152773
0.158179
0.164057
0.170612
0.178135
0.187069
0.198184
0.21316
0.236803
0.28552
0.410406
0.0023725
0.00401941
0.0067871
0.0106054
0.0153134
0.0207335
0.0266928
0.0330321
0.0396108
0.0463084
0.0530259
0.0596881
0.0662453
0.072661
0.078905
0.0849586
0.0908147
0.096475
0.101947
0.10724
0.112364
0.117335
0.122168
0.126881
0.131498
0.136045
0.140561
0.145098
0.149725
0.154538
0.159661
0.165261
0.171555
0.178845
0.187577
0.198524
0.213359
0.236887
0.285529
0.410435
0.00552107
0.00754484
0.0106055
0.0145924
0.0193729
0.0248059
0.0307499
0.0370689
0.0436353
0.0503336
0.0570652
0.0637535
0.0703425
0.0767846
0.0830462
0.0891081
0.0949632
0.100614
0.106064
0.11132
0.116391
0.121287
0.126019