/*--------------------------------*- C++ -*----------------------------------*\
| =========                 |                                                 |
| \\      /  F ield         | OpenFOAM: The Open Source CFD Toolbox           |
|  \\    /   O peration     | Version:  2.1.0                                 |
|   \\  /    A nd           | Web:      www.OpenFOAM.org                      |
|    \\/     M anipulation  |                                                 |
\*---------------------------------------------------------------------------*/
FoamFile
{
    version     2.0;
    format      ascii;
    class       volScalarField;
    location    "36135";
    object      kr_w;
}
// * * * * * * * * * * * * * * * * * * * * * * * * * * * * * * * * * * * * * //

dimensions      [0 0 0 0 0 0 0];

internalField   nonuniform List<scalar> 
8000
(
0.446137
0.425934
0.401099
0.375112
0.349873
0.326227
0.304478
0.284669
0.266712
0.250469
0.235769
0.222451
0.210377
0.199419
0.189455
0.18037
0.17206
0.16443
0.157399
0.150888
0.144826
0.139149
0.133802
0.12873
0.123884
0.119212
0.114666
0.110189
0.105723
0.101196
0.0965266
0.0916073
0.086295
0.0803783
0.0735122
0.0650772
0.0539337
0.0383001
0.0182101
0.0033488
0.425935
0.407855
0.385636
0.362149
0.339043
0.317119
0.296723
0.277964
0.260822
0.245205
0.23099
0.218058
0.2063
0.195605
0.185865
0.176974
0.168834
0.161359
0.154468
0.148088
0.14215
0.136596
0.131372
0.126428
0.121716
0.117189
0.112799
0.108491
0.104203
0.0998643
0.0953844
0.0906517
0.0855167
0.0797633
0.0730424
0.06473
0.0536782
0.0380929
0.0180426
0.00329718
0.4011
0.385637
0.366486
0.345934
0.325342
0.305474
0.286719
0.269246
0.253103
0.238257
0.224647
0.212204
0.200852
0.190503
0.181063
0.172436
0.164532
0.157274
0.150584
0.144393
0.138638
0.133266
0.128228
0.123477
0.118972
0.114667
0.110515
0.106462
0.102441
0.0983737
0.0941604
0.0896784
0.0847696
0.0792119
0.072654
0.0644701
0.0535072
0.0379616
0.0179322
0.00326283
0.375114
0.362149
0.345934
0.328196
0.310088
0.292297
0.275224
0.259088
0.243989
0.229957
0.216996
0.205092
0.194199
0.184249
0.175161
0.166848
0.159233
0.152239
0.145796
0.139839
0.134312
0.129168
0.124362
0.119857
0.115615
0.111595
0.107754
0.104036
0.10037
0.0966638
0.0928025
0.088645
0.0840192
0.078696
0.0723224
0.0642741
0.0533969
0.0378808
0.0178558
0.00323755
0.349873
0.339043
0.325342
0.310089
0.294215
0.278332
0.26283
0.24795
0.233833
0.220576
0.208249
0.196884
0.186465
0.176939
0.168233
0.160271
0.152979
0.146284
0.14012
0.134427
0.129156
0.124268
0.119726
0.115499
0.111558
0.107873
0.104404
0.101097
0.0978765
0.0946338
0.0912274
0.0874855
0.0832135
0.0781729
0.0720109
0.0641082
0.0533134
0.0378159
0.0177835
0.0032113
0.326228
0.31712
0.305475
0.292297
0.278332
0.264104
0.249973
0.236181
0.222911
0.210324
0.198552
0.187679
0.177715
0.168613
0.160304
0.152715
0.145769
0.139392
0.133522
0.128108
0.123107
0.118484
0.114215
0.110279
0.106658
0.103335
0.100283
0.0974566
0.0947783
0.0921216
0.0893047
0.0860999
0.0822763
0.077582
0.0716678
0.0639251
0.053211
0.0377214
0.0176785
0.00317217
0.304479
0.296724
0.286719
0.275224
0.26283
0.249973
0.236966
0.224048
0.211433
0.199334
0.18796
0.17748
0.167922
0.15923
0.151325
0.144118
0.137525
0.131473
0.125903
0.120767
0.11603
0.111664
0.107655
0.103993
0.100679
0.0977147
0.095097
0.0928039
0.0907697
0.0888549
0.0868192
0.0843285
0.0810905
0.0768348
0.0712216
0.0636623
0.0530312
0.0375418
0.0174976
0.00310705
0.28467
0.277965
0.269246
0.259088
0.24795
0.236181
0.224048
0.211769
0.199554
0.187642
0.176368
0.166115
0.156895
0.148596
0.141094
0.134272
0.128034
0.122304
0.117026
0.112154
0.107657
0.103516
0.0997256
0.0962896
0.0932269
0.0905679
0.0883494
0.0865991
0.0853003
0.0843303
0.0833811
0.0818966
0.0794696
0.0758014
0.0705751
0.0632407
0.0527048
0.0372145
0.0171949
0.00300317
0.266713
0.260822
0.253103
0.243988
0.233833
0.222911
0.211433
0.199554
0.187398
0.175135
0.16326
0.152988
0.144046
0.136139
0.129045
0.122611
0.116726
0.11131
0.106304
0.101665
0.0973652
0.0933903
0.0897403
0.0864314
0.0835001
0.0810086
0.0790492
0.0777419
0.0772025
0.0774391
0.0781387
0.078262
0.0770994
0.0742957
0.0696067
0.0625702
0.0521577
0.0366764
0.0167274
0.00285072
0.25047
0.245206
0.238258
0.229956
0.220576
0.210324
0.199333
0.187642
0.175135
0.161439
0.146215
0.135723
0.127118
0.119667
0.11303
0.107012
0.101489
0.096373
0.0916044
0.0871396
0.0829503
0.079022
0.075355
0.0719685
0.0689076
0.0662561
0.0641601
0.0628692
0.0627953
0.0645074
0.0682877
0.0720382
0.0734015
0.0720685
0.0681878
0.0615683
0.0513265
0.0358757
0.0160636
0.0026458
0.23577
0.230991
0.224646
0.216996
0.208249
0.198552
0.18796
0.176368
0.16326
0.146215
0.0060992
0.00464624
0.00529297
0.00567318
0.00585333
0.00590183
0.00585862
0.00575108
0.00559881
0.00541853
0.00522377
0.00502789
0.00484504
0.00469132
0.00458878
0.00457365
0.00471649
0.0051886
0.00654116
0.0110775
0.0651895
0.0688607
0.0704325
0.069728
0.0664557
0.0602419
0.0501881
0.0347866
0.0151916
0.00239263
0.222452
0.218059
0.212203
0.205092
0.196884
0.187679
0.17748
0.166115
0.152988
0.135723
0.00464627
0.000355407
0.000249093
0.00028843
0.000315039
0.000328683
0.000332764
0.000329738
0.000321643
0.0003104
0.000297332
0.00028402
0.00027178
0.000262381
0.000257665
0.000260686
0.000278193
0.000324785
0.000443613
0.000763469
0.0619169
0.0661571
0.067808
0.0674064
0.0645389
0.0586523
0.0487634
0.0334154
0.0141231
0.00210361
0.210378
0.2063
0.200852
0.194199
0.186465
0.177714
0.167922
0.156895
0.144046
0.127118
0.00529315
0.000249096
1.55577e-05
1.0266e-05
1.17791e-05
1.28355e-05
1.31529e-05
1.33028e-05
1.30986e-05
1.26818e-05
1.21906e-05
1.15546e-05
1.10262e-05
1.05494e-05
1.05033e-05
1.06535e-05
1.15065e-05
1.37579e-05
1.8878e-05
2.94872e-05
0.058808
0.0636056
0.0653348
0.0651107
0.0625125
0.0568656
0.0470957
0.0317909
0.0128896
0.00179656
0.199419
0.195605
0.190503
0.184249
0.176939
0.168613
0.15923
0.148596
0.136139
0.119666
0.0056732
0.000288432
1.02661e-05
4.71538e-07
3.85105e-07
4.12739e-07
4.29152e-07
4.42928e-07
4.49341e-07
4.5051e-07
4.49215e-07
3.33684e-07
3.2712e-07
3.21859e-07
3.26452e-07
3.32974e-07
3.53494e-07
4.01925e-07
4.99275e-07
8.75524e-07
0.0558319
0.0611222
0.0629343
0.0628328
0.0604189
0.0549354
0.0452317
0.0299526
0.0115362
0.0014908
0.189455
0.185865
0.181063
0.175161
0.168233
0.160304
0.151324
0.141094
0.129045
0.113029
0.00585334
0.00031504
1.17791e-05
3.85107e-07
1.00461e-08
5.7864e-09
6.33048e-09
6.87666e-09
7.33239e-09
7.71212e-09
8.04388e-09
5.45307e-09
5.53606e-09
5.63717e-09
5.84518e-09
6.03395e-09
6.34136e-09
6.89683e-09
7.82566e-09
1.46681e-08
0.0529705
0.0586803
0.0605746
0.0605674
0.0582822
0.0529005
0.043212
0.0279409
0.0101158
0.00120353
0.18037
0.176974
0.172436
0.166848
0.16027
0.152715
0.144118
0.134272
0.122611
0.107012
0.00590184
0.000328684
1.28355e-05
4.12741e-07
5.78647e-09
9.50257e-11
5.60709e-11
6.41251e-11
7.2011e-11
7.94356e-11
8.6514e-11
5.69544e-11
5.9774e-11
6.27488e-11
6.63523e-11
6.92197e-11
7.22187e-11
7.5918e-11
8.04454e-11
1.55211e-10
0.0502107
0.0562685
0.0582413
0.0583114
0.0561163
0.0507875
0.0410689
0.0257933
0.00868509
0.000947442
0.17206
0.168834
0.164532
0.159232
0.152979
0.145768
0.137525
0.128034
0.116726
0.101488
0.00585863
0.000332765
1.31529e-05
4.29154e-07
6.33055e-09
5.60719e-11
6.88737e-13
4.20223e-13
4.94011e-13
5.70015e-13
6.46035e-13
4.23532e-13
4.57947e-13
4.93258e-13
5.30287e-13
5.57886e-13
5.78581e-13
5.92759e-13
5.97366e-13
1.16832e-12
0.0475395
0.0538793
0.0559259
0.0560615
0.0539283
0.0486133
0.0388263
0.0235452
0.00730066
0.000729732
0.16443
0.161359
0.157273
0.152239
0.146284
0.139392
0.131473
0.122305
0.11131
0.0963727
0.00575109
0.000329739
1.33028e-05
4.4293e-07
6.87674e-09
6.41264e-11
4.20242e-13
4.19757e-15
2.54648e-15
3.07038e-15
3.66731e-15
2.33692e-15
2.59093e-15
2.9275e-15
3.19421e-15
3.39742e-15
3.51491e-15
3.52443e-15
3.44188e-15
6.91233e-15
0.0449435
0.0515051
0.0536212
0.0538133
0.0517204
0.0463882
0.0365013
0.0212327
0.00601465
0.000552381
0.157399
0.154468
0.150583
0.145796
0.140119
0.133522
0.125903
0.117026
0.106304
0.0916041
0.00559882
0.000321644
1.30987e-05
4.49343e-07
7.33246e-09
7.20122e-11
4.94011e-13
2.54648e-15
0
0
0
0
0
0
0
0
0
0
0
0
0.0424084
0.0491371
0.0513193
0.0515606
0.0494911
0.0441178
0.0341071
0.0188984
0.00486861
0.00041326
0.150888
0.148087
0.144392
0.139839
0.134426
0.128108
0.120767
0.112154
0.101665
0.0871394
0.00541853
0.000310401
1.26818e-05
4.50512e-07
7.71219e-09
7.94368e-11
5.70031e-13
3.07038e-15
0
0
0
0
0
0
0
0
0
0
0
0
0.039919
0.0467638
0.0490098
0.0492945
0.0472358
0.0418046
0.0316558
0.0165967
0.00388854
0.000307653
0.144826
0.14215
0.138638
0.134312
0.129156
0.123107
0.116029
0.107657
0.097365
0.0829502
0.00522378
0.000297221
1.21877e-05
4.4918e-07
8.04365e-09
8.65135e-11
6.46025e-13
3.66731e-15
0
0
0
0
0
0
0
0
0
0
0
0
0.0374582
0.0443705
0.0466793
0.0470033
0.0449478
0.03945
0.0291631
0.0143859
0.00308304
0.000229741
0.13915
0.136596
0.133266
0.129168
0.124268
0.118484
0.111664
0.103516
0.0933902
0.079022
0.0050279
0.000284019
1.15546e-05
3.33685e-07
5.45311e-09
5.69552e-11
4.23532e-13
2.33692e-15
0
0
0
0
0
0
0
0
0
0
0
0
0.0350059
0.0419374
0.0443092
0.0446715
0.0426182
0.037056
0.0266533
0.0123321
0.00244591
0.000173755
0.133802
0.131371
0.128227
0.124362
0.119725
0.114215
0.107654
0.0997253
0.0897402
0.0753551
0.00484506
0.000271781
1.10262e-05
3.27122e-07
5.5361e-09
5.97747e-11
4.57947e-13
2.59093e-15
0
0
0
0
0
0
0
0
0
0
0
0
0.0325373
0.0394378
0.041875
0.0422794
0.040237
0.034628
0.0241654
0.0105055
0.00196114
0.000134658
0.12873
0.126427
0.123477
0.119857
0.115499
0.110279
0.103993
0.0962892
0.0864313
0.0719687
0.00469133
0.000262382
1.05494e-05
3.2186e-07
5.63721e-09
6.27495e-11
4.9329e-13
2.9275e-15
0
0
0
0
0
0
0
0
0
0
0
0
0.0300205
0.0368354
0.0393432
0.0398018
0.0377935
0.0321776
0.021757
0.00896151
0.00160823
0.000108457
0.123884
0.121715
0.118971
0.115614
0.111558
0.106658
0.100679
0.0932266
0.0835
0.0689077
0.00458879
0.000257665
1.05033e-05
3.26453e-07
5.84522e-09
6.63529e-11
5.30287e-13
3.19421e-15
0
0
0
0
0
0
0
0
0
0
0
0
0.0274146
0.0340808
0.0366685
0.0372067
0.0352763
0.0297248
0.0195029
0.00772852
0.00136667
9.22716e-05
0.119212
0.117189
0.114666
0.111595
0.107873
0.103334
0.0977143
0.0905676
0.0810085
0.0662562
0.00457366
0.000260687
1.06535e-05
3.32975e-07
6.03398e-09
6.92202e-11
5.57886e-13
3.39742e-15
0
0
0
0
0
0
0
0
0
0
0
0
0.0246674
0.0311069
0.0337898
0.0344525
0.0326728
0.0272986
0.0174827
0.00680644
0.00121889
8.43025e-05
0.114666
0.112798
0.110514
0.107754
0.104404
0.100282
0.0950967
0.0883492
0.0790491
0.0641602
0.00471649
0.000278194
1.15065e-05
3.53495e-07
6.34139e-09
7.22192e-11
5.78601e-13
3.51491e-15
0
0
0
0
0
0
0
0
0
0
0
0
0.0217167
0.0278242
0.0306243
0.0314842
0.0299662
0.0249317
0.0157601
0.00617373
0.00115203
8.38223e-05
0.110189
0.10849
0.106461
0.104036
0.101097
0.0974564
0.0928036
0.0865989
0.0777417
0.0628692
0.0051886
0.000324785
1.37579e-05
4.01926e-07
6.89686e-09
7.59184e-11
5.92759e-13
3.52443e-15
0
0
0
0
0
0
0
0
0
0
0
0
0.0184993
0.0241203
0.0270645
0.0282285
0.0271276
0.0226472
0.0143591
0.00579622
0.00115846
9.12144e-05
0.105722
0.104203
0.102441
0.10037
0.0978764
0.0947781
0.0907695
0.0853001
0.0772023
0.0627953
0.00654116
0.000443613
1.8878e-05
4.99276e-07
7.82569e-09
8.04457e-11
5.97366e-13
3.44188e-15
0
0
0
0
0
0
0
0
0
0
0
0
0.0149767
0.0198785
0.022987
0.0245925
0.0241062
0.0204354
0.0132484
0.0056301
0.00123419
0.000107954
0.101196
0.099864
0.0983734
0.0966636
0.0946337
0.0921215
0.0888546
0.0843301
0.077439
0.0645073
0.0110776
0.000763477
2.94873e-05
8.75527e-07
1.46682e-08
1.55212e-10
1.16832e-12
6.91233e-15
0
0
0
0
0
0
0
0
0
0
0
0
0.0111518
0.0150436
0.0183024
0.0204831
0.020823
0.0182309
0.0123373
0.00561496
0.00137332
0.000136095
0.0965266
0.0953841
0.0941601
0.0928022
0.0912272
0.0893045
0.0868189
0.0833809
0.0781385
0.0682876
0.0651894
0.0619168
0.058808
0.0558319
0.0529705
0.0502108
0.0475396
0.0449436
0.0424085
0.0399191
0.0374584
0.0350061
0.0325374
0.0300206
0.0274147
0.0246676
0.0217169
0.0184995
0.0149769
0.0111519
0.00870074
0.0103474
0.0132885
0.0159492
0.0172156
0.0159133
0.0114819
0.00565675
0.00155535
0.000177411
0.0916073
0.0906513
0.0896781
0.0886447
0.0874852
0.0860997
0.0843283
0.0818964
0.0782618
0.072038
0.0688605
0.0661569
0.0636054
0.0611221
0.0586802
0.0562684
0.0538792
0.0515051
0.0491371
0.0467639
0.0443706
0.0419375
0.0394378
0.0368355
0.0340809
0.0311071
0.0278244
0.0241205
0.0198787
0.0150438
0.0103475
0.00865523
0.00962671
0.0117432
0.0134922
0.0134064
0.0105182
0.00571226
0.00176987
0.000238556
0.086295
0.0855163
0.0847693
0.0840189
0.0832133
0.082276
0.0810902
0.0794694
0.0770991
0.0734013
0.0704323
0.0678078
0.0653346
0.0629342
0.0605745
0.0582412
0.0559258
0.0536212
0.0513193
0.0490098
0.0466793
0.0443093
0.0418751
0.0393433
0.0366687
0.03379
0.0306245
0.0270647
0.0229873
0.0183026
0.0132887
0.00962682
0.00828583
0.00886918
0.0102229
0.0108387
0.0093406
0.00568579
0.00202926
0.0003256
0.0803782
0.0797629
0.0792117
0.0786957
0.0781726
0.0775817
0.0768345
0.0758011
0.0742955
0.0720682
0.0697278
0.0674062
0.0651105
0.0628327
0.0605674
0.0583113
0.0560614
0.0538133
0.0515605
0.0492945
0.0470032
0.0446715
0.0422794
0.0398018
0.0372067
0.0344525
0.0314843
0.0282287
0.0245926
0.0204833
0.0159494
0.0117433
0.00886926
0.00774999
0.0080054
0.00856515
0.00799685
0.00549424
0.00229382
0.000442905
0.0735121
0.073042
0.0726538
0.0723222
0.0720107
0.0716676
0.0712213
0.0705749
0.0696064
0.0681876
0.0664555
0.0645386
0.0625123
0.0604187
0.058282
0.0561162
0.0539282
0.0517203
0.0494909
0.0472357
0.0449477
0.0426181
0.040237
0.0377935
0.0352763
0.0326729
0.0299662
0.0271277
0.0241063
0.0208232
0.0172157
0.0134923
0.010223
0.00800545
0.00705775
0.00697433
0.00670617
0.00512797
0.00251619
0.000591061
0.0650771
0.0647296
0.0644698
0.064274
0.0641081
0.063925
0.0636621
0.0632405
0.06257
0.061568
0.0602417
0.058652
0.0568654
0.0549352
0.0529004
0.0507874
0.0486132
0.0463882
0.0441178
0.0418046
0.03945
0.037056
0.034628
0.0321777
0.0297249
0.0272987
0.0249318
0.0226473
0.0204355
0.018231
0.0159134
0.0134065
0.0108388
0.00856522
0.00697436
0.0061775
0.00572433
0.00467864
0.00266634
0.000766658
0.0539337
0.053678
0.053507
0.0533967
0.0533133
0.0532108
0.0530311
0.0527046
0.0521575
0.0513263
0.0501879
0.0487633
0.0470957
0.0452316
0.043212
0.041069
0.0388264
0.0365014
0.0341071
0.0316559
0.0291631
0.0266533
0.0241654
0.0217571
0.019503
0.0174828
0.0157602
0.0143592
0.0132485
0.0123374
0.011482
0.0105182
0.00934066
0.00799689
0.0067062
0.00572434
0.00506062
0.00424391
0.00273788
0.000962198
0.0383001
0.0380928
0.0379614
0.0378806
0.0378157
0.0377212
0.0375417
0.0372144
0.0366763
0.0358756
0.0347865
0.0334153
0.0317909
0.0299526
0.0279408
0.0257933
0.0235452
0.0212327
0.0188984
0.0165967
0.0143858
0.0123321
0.0105055
0.00896153
0.00772855
0.00680648
0.00617377
0.00579626
0.00563013
0.00561498
0.00565676
0.00571227
0.0056858
0.00549426
0.00512799
0.00467865
0.00424391
0.00370066
0.00267315
0.00114904
0.01821
0.0180425
0.0179321
0.0178557
0.0177835
0.0176784
0.0174975
0.0171948
0.0167274
0.0160636
0.0151916
0.014123
0.0128895
0.0115362
0.0101158
0.00868509
0.00730066
0.00601464
0.00486859
0.00388851
0.00308302
0.0024459
0.00196113
0.00160823
0.00136668
0.00121889
0.00115203
0.00115847
0.00123419
0.00137332
0.00155535
0.00176986
0.00202926
0.00229382
0.00251619
0.00266634
0.00273788
0.00267315
0.00224392
0.0012133
0.00334879
0.00329716
0.00326282
0.00323754
0.00321124
0.00317211
0.00310701
0.00300315
0.00285071
0.00264579
0.00239263
0.00210361
0.00179656
0.0014908
0.00120353
0.000947444
0.000729734
0.000552381
0.000413259
0.000307652
0.000229741
0.000173755
0.000134658
0.000108457
9.22719e-05
8.43027e-05
8.38225e-05
9.12143e-05
0.000107954
0.000136094
0.000177411
0.000238555
0.000325598
0.000442903
0.000591059
0.000766656
0.000962196
0.00114904
0.0012133
0.000889434
0.529275
0.508103
0.477182
0.442507
0.408576
0.377343
0.349327
0.32446
0.302466
0.283017
0.265792
0.250486
0.236822
0.22456
0.213508
0.203503
0.194404
0.186085
0.178438
0.171375
0.164815
0.158687
0.152927
0.147475
0.142277
0.137277
0.132423
0.127655
0.122912
0.118122
0.113202
0.10805
0.102536
0.0964846
0.0896507
0.0816677
0.0719092
0.0588808
0.0384526
0.0110007
0.508107
0.486225
0.45702
0.425369
0.394454
0.365724
0.33966
0.316278
0.295413
0.276828
0.260266
0.245475
0.232212
0.220275
0.209494
0.199719
0.190821
0.182679
0.175194
0.168282
0.161866
0.155879
0.150261
0.144956
0.139912
0.135078
0.130401
0.125824
0.121283
0.116703
0.111995
0.10705
0.101731
0.0958581
0.0891814
0.0813308
0.0716788
0.0587348
0.0383622
0.0109496
0.477184
0.45702
0.431334
0.403763
0.376561
0.35088
0.327204
0.305661
0.286202
0.268696
0.252969
0.238827
0.226083
0.214574
0.204157
0.194699
0.186078
0.178185
0.170931
0.164235
0.158028
0.152249
0.146841
0.141755
0.136943
0.132357
0.127946
0.123652
0.119405
0.115123
0.110706
0.106034
0.100959
0.095296
0.0887909
0.0810735
0.0715194
0.0586469
0.0383198
0.0109258
0.442508
0.42537
0.403763
0.380354
0.356856
0.334247
0.313019
0.293392
0.27542
0.259065
0.244235
0.230801
0.218639
0.207623
0.197634
0.188552
0.180265
0.172676
0.165704
0.159277
0.153329
0.147808
0.142663
0.137853
0.133335
0.129067
0.124999
0.121072
0.117212
0.113322
0.109284
0.10496
0.100187
0.0947706
0.0884559
0.0808751
0.0714113
0.0585974
0.0383037
0.0109142
0.408576
0.394455
0.376562
0.356857
0.336682
0.316876
0.297927
0.280109
0.263553
0.248301
0.234333
0.221602
0.210037
0.199545
0.19002
0.181352
0.173437
0.166192
0.159539
0.153414
0.147759
0.142528
0.137681
0.133184
0.129004
0.125106
0.121447
0.117969
0.114591
0.111199
0.107647
0.103764
0.0993634
0.0942413
0.0881417
0.0807043
0.0713256
0.0585587
0.0382854
0.0108959
0.377344
0.365725
0.350881
0.334247
0.316876
0.299478
0.282518
0.266288
0.250967
0.236663
0.223447
0.211358
0.200369
0.190403
0.181356
0.17312
0.165603
0.158724
0.152411
0.146606
0.141259
0.136334
0.131799
0.127631
0.123809
0.120313
0.117112
0.114156
0.11136
0.108593
0.105665
0.102346
0.0984134
0.0936483
0.0877987
0.0805179
0.0712232
0.0584946
0.0382288
0.010848
0.349328
0.339661
0.327204
0.31302
0.297928
0.282518
0.267205
0.25227
0.237914
0.224313
0.211657
0.200095
0.189628
0.180167
0.171595
0.163802
0.156696
0.150193
0.144229
0.138747
0.133709
0.129084
0.124852
0.121002
0.117531
0.114438
0.111715
0.109335
0.107226
0.10524
0.103128
0.100551
0.097223
0.0929057
0.087358
0.0802578
0.0710538
0.0583605
0.0380921
0.0107448
0.32446
0.316279
0.305661
0.293393
0.28011
0.266288
0.25227
0.238294
0.224558
0.211301
0.198867
0.187649
0.177625
0.16864
0.160541
0.1532
0.146511
0.140391
0.134774
0.129611
0.124867
0.12052
0.116559
0.112987
0.109818
0.10708
0.104803
0.10301
0.101676
0.100669
0.0996724
0.0981219
0.0956162
0.09189
0.0867272
0.079851
0.0707581
0.058107
0.0378305
0.01056
0.302466
0.295414
0.286202
0.27542
0.263553
0.250967
0.237914
0.224558
0.21103
0.197515
0.184542
0.173401
0.16375
0.155239
0.147633
0.140763
0.134507
0.128778
0.12351
0.118655
0.114183
0.110076
0.106331
0.102959
0.0999935
0.0974898
0.0955314
0.094227
0.0936797
0.0938866
0.0945295
0.0945686
0.093308
0.0904302
0.0857935
0.0792156
0.0702735
0.057685
0.0374015
0.0102708
0.283017
0.276828
0.268696
0.259065
0.2483
0.236663
0.224313
0.211301
0.197515
0.182567
0.166124
0.154875
0.14569
0.137772
0.130761
0.124443
0.118683
0.113387
0.10849
0.103945
0.0997213
0.0958023
0.0921859
0.0888873
0.0859445
0.0834295
0.0814683
0.080279
0.0802274
0.0818278
0.0853385
0.0887455
0.0898283
0.0883208
0.0844469
0.0782804
0.0695492
0.0570564
0.0367725
0.00986176
0.265792
0.260266
0.252968
0.244234
0.234333
0.223447
0.211657
0.198867
0.184542
0.166125
0.00771852
0.00612099
0.00712125
0.00779396
0.00820922
0.00845318
0.00857638
0.00861167
0.00858433
0.00851522
0.00842265
0.00832564
0.00824485
0.00820663
0.00824755
0.00842905
0.00887214
0.0098777
0.012437
0.0205433
0.0820739
0.0856671
0.0870048
0.0861033
0.082812
0.0770563
0.0685718
0.0562063
0.0359281
0.00932968
0.250487
0.245475
0.238827
0.230801
0.221601
0.211358
0.200095
0.187649
0.173401
0.154875
0.00612102
0.000551653
0.000400104
0.000477046
0.000537669
0.000579557
0.000606849
0.000622636
0.000629888
0.000631011
0.000628552
0.00062482
0.000622735
0.000625441
0.000637928
0.000667929
0.000731305
0.000864791
0.00117584
0.0019893
0.0783634
0.0829985
0.0844965
0.0839036
0.081011
0.0756046
0.0673679
0.0551471
0.0348724
0.00868433
0.236822
0.232213
0.226083
0.218638
0.210037
0.200369
0.189628
0.177624
0.16375
0.145689
0.00712127
0.000400106
2.88166e-05
1.98546e-05
2.36012e-05
2.66933e-05
2.89853e-05
3.04914e-05
3.13564e-05
3.17288e-05
3.19917e-05
3.19843e-05
3.20019e-05
3.22498e-05
3.32104e-05
3.52358e-05
3.92348e-05
4.71965e-05
6.41353e-05
9.82725e-05
0.0749398
0.0804978
0.0821414
0.0817367
0.079119
0.0739923
0.0659838
0.0539105
0.0336248
0.00794681
0.22456
0.220275
0.214574
0.207623
0.199545
0.190403
0.180167
0.16864
0.155239
0.137772
0.00779397
0.000477047
1.98547e-05
1.27502e-06
7.86997e-07
9.65653e-07
1.14318e-06
1.19815e-06
1.23961e-06
1.27062e-06
1.18946e-06
1.20871e-06
1.22875e-06
1.25232e-06
1.29155e-06
1.46235e-06
1.56908e-06
1.86186e-06
2.42701e-06
3.30581e-06
0.0717505
0.0780971
0.0798745
0.0796009
0.07718
0.0722742
0.0644687
0.0525354
0.0322121
0.00714572
0.213508
0.209494
0.204157
0.197633
0.19002
0.181356
0.171594
0.16054
0.147633
0.13076
0.00820924
0.000537671
2.36013e-05
7.87002e-07
2.04386e-08
1.39298e-08
1.77571e-08
1.94871e-08
2.10375e-08
2.24429e-08
2.10564e-08
2.21114e-08
2.31589e-08
2.4195e-08
2.53543e-08
2.98653e-08
3.15899e-08
3.69276e-08
4.61567e-08
5.75661e-08
0.0687517
0.0757718
0.077669
0.0774946
0.0752207
0.0704917
0.0628664
0.0510605
0.0306621
0.00631332
0.203502
0.199719
0.194698
0.188551
0.181352
0.17312
0.163801
0.153199
0.140763
0.124443
0.0084532
0.000579559
2.66934e-05
9.65658e-07
1.39299e-08
2.31728e-10
1.60576e-10
1.85257e-10
2.09922e-10
2.33972e-10
2.24566e-10
2.44079e-10
2.63492e-10
2.82184e-10
3.00694e-10
3.62853e-10
3.80596e-10
4.38028e-10
5.28086e-10
6.18216e-10
0.0659169
0.0735098
0.0755124
0.0754171
0.0732574
0.0686747
0.0612138
0.0495193
0.028999
0.0054823
0.194403
0.190821
0.186077
0.180264
0.173437
0.165603
0.156695
0.146511
0.134507
0.118683
0.00857639
0.00060685
2.89854e-05
1.14319e-06
1.77573e-08
1.60579e-10
1.99536e-12
1.22519e-12
1.45097e-12
1.68791e-12
1.66662e-12
1.87153e-12
2.07757e-12
2.27527e-12
2.46072e-12
3.01755e-12
3.1453e-12
3.57015e-12
4.1841e-12
4.68434e-12
0.0632256
0.0713022
0.0733968
0.0733668
0.0713007
0.0668453
0.0595405
0.0479386
0.0272419
0.00468307
0.186084
0.182679
0.178184
0.172675
0.166192
0.158724
0.150193
0.14039
0.128778
0.113387
0.00861169
0.000622637
3.04915e-05
1.19816e-06
1.94873e-08
1.8526e-10
1.22526e-12
1.24466e-14
7.76327e-15
9.42071e-15
9.58264e-15
1.10559e-14
1.26022e-14
1.40501e-14
1.53995e-14
1.907e-14
1.97495e-14
2.21372e-14
2.53537e-14
2.75382e-14
0.0606598
0.0691397
0.0713155
0.0713417
0.0693569
0.06502
0.0578713
0.0463378
0.0254055
0.00394137
0.178437
0.175194
0.17093
0.165704
0.159539
0.152411
0.144228
0.134773
0.123509
0.10849
0.00858434
0.000629889
3.13565e-05
1.23962e-06
2.10377e-08
2.09925e-10
1.45106e-12
7.76327e-15
0
0
0
0
0
0
0
0
0
0
0
0
0.0582036
0.0670123
0.0692612
0.0693384
0.0674301
0.0632124
0.0562271
0.0447286
0.0235032
0.00327639
0.171374
0.168281
0.164234
0.159276
0.153413
0.146606
0.138747
0.129611
0.118655
0.103945
0.00851504
0.000631008
3.17288e-05
1.27062e-06
2.24431e-08
2.33975e-10
1.68793e-12
9.42071e-15
0
0
0
0
0
0
0
0
0
0
0
0
0.0558417
0.0649087
0.0672262
0.0673531
0.0655234
0.0614345
0.0546269
0.0431154
0.0215526
0.00269977
0.164814
0.161865
0.158028
0.153329
0.147758
0.141259
0.133709
0.124867
0.114183
0.0997213
0.00842265
0.000628553
3.19917e-05
1.18947e-06
2.10566e-08
2.24569e-10
1.66667e-12
9.58264e-15
0
0
0
0
0
0
0
0
0
0
0
0
0.05356
0.0628159
0.0652014
0.0653812
0.0636395
0.0596983
0.0530893
0.0415139
0.0195837
0.00221603
0.158687
0.155879
0.152248
0.147808
0.142528
0.136334
0.129084
0.12052
0.110076
0.0958023
0.00832565
0.000624821
3.19844e-05
1.20871e-06
2.21116e-08
2.44082e-10
1.87163e-12
1.10559e-14
0
0
0
0
0
0
0
0
0
0
0
0
0.0513446
0.0607194
0.0631763
0.0634181
0.0617818
0.0580164
0.0516323
0.0399473
0.0176461
0.0018241
0.152926
0.15026
0.146841
0.142663
0.137681
0.131798
0.124851
0.116559
0.10633
0.0921859
0.00824486
0.000622736
3.20019e-05
1.22876e-06
2.31591e-08
2.63495e-10
2.07757e-12
1.26022e-14
0
0
0
0
0
0
0
0
0
0
0
0
0.0491827
0.0586017
0.0611392
0.061459
0.0599546
0.0564023
0.0502733
0.0384375
0.0158126
0.00151941
0.147475
0.144955
0.141755
0.137853
0.133184
0.12763
0.121002
0.112986
0.102959
0.0888874
0.00820665
0.000625442
3.22498e-05
1.25232e-06
2.41951e-08
2.82187e-10
2.27529e-12
1.40501e-14
0
0
0
0
0
0
0
0
0
0
0
0
0.0470622
0.0564424
0.0590763
0.0594993
0.0581628
0.0548705
0.0490277
0.0370117
0.014175
0.00129594
0.142276
0.139911
0.136943
0.133335
0.129004
0.123809
0.117531
0.109818
0.0999933
0.0859447
0.00824756
0.000637929
3.32104e-05
1.29156e-06
2.53545e-08
3.00697e-10
2.46073e-12
1.5463e-14
0
0
0
0
0
0
0
0
0
0
0
0
0.0449733
0.054217
0.0569705
0.057533
0.0564114
0.0534347
0.0479077
0.0357081
0.01283
0.00114808
0.137277
0.135077
0.132357
0.129067
0.125106
0.120313
0.114437
0.107079
0.0974896
0.0834296
0.00842906
0.000667929
3.52358e-05
1.46236e-06
2.98654e-08
3.62856e-10
3.01761e-12
1.907e-14
0
0
0
0
0
0
0
0
0
0
0
0
0.0429092
0.0518961
0.0547992
0.0555515
0.0547034
0.0521053
0.0469217
0.0345793
0.0118608
0.00107246
0.132422
0.1304
0.127946
0.124999
0.121447
0.117112
0.111714
0.104803
0.0955313
0.0814683
0.00887214
0.000731306
3.92348e-05
1.56908e-06
3.15901e-08
3.80599e-10
3.1453e-12
1.97495e-14
0
0
0
0
0
0
0
0
0
0
0
0
0.040868
0.0494419
0.0525298
0.0535391
0.0530353
0.0508838
0.0460756
0.0336928
0.0113267
0.00107011
0.127655
0.125824
0.123652
0.121072
0.117969
0.114156
0.109334
0.10301
0.0942269
0.080279
0.00987771
0.000864791
4.71966e-05
1.86186e-06
3.69278e-08
4.3803e-10
3.57019e-12
2.21372e-14
0
0
0
0
0
0
0
0
0
0
0
0
0.0388493
0.0467963
0.0501071
0.0514618
0.0513879
0.0497545
0.0453722
0.0331228
0.0112639
0.00114911
0.122911
0.121282
0.119405
0.117212
0.114591
0.11136
0.107225
0.101675
0.0936795
0.0802273
0.012437
0.00117584
6.41354e-05
2.42701e-06
4.61569e-08
5.28089e-10
4.18413e-12
2.53537e-14
0
0
0
0
0
0
0
0
0
0
0
0
0.036828
0.0438439
0.0474181
0.0492391
0.0497043
0.0486702
0.0448025
0.0329348
0.0116931
0.00132734
0.118122
0.116702
0.115123
0.113321
0.111198
0.108593
0.10524
0.100669
0.0938864
0.0818276
0.020543
0.00198929
9.82724e-05
3.30582e-06
5.75663e-08
6.18219e-10
4.68434e-12
2.75382e-14
0
0
0
0
0
0
0
0
0
0
0
0
0.034626
0.0402951
0.0441936
0.0466691
0.0478396
0.0475216
0.0443163
0.0331736
0.0126288
0.0016346
0.113202
0.111994
0.110706
0.109284
0.107647
0.105664
0.103128
0.0996722
0.0945292
0.0853383
0.0820737
0.0783632
0.0749396
0.0717504
0.0687515
0.0659168
0.0632254
0.0606597
0.0582035
0.0558416
0.0535599
0.0513445
0.0491826
0.0470621
0.0449732
0.0429091
0.040868
0.0388493
0.036828
0.0346261
0.0332584
0.0362354
0.0401303
0.0433858
0.0454872
0.0460791
0.0437639
0.0337921
0.0141192
0.0021285
0.10805
0.107049
0.106033
0.104959
0.103763
0.102346
0.100551
0.0981217
0.0945683
0.0887452
0.0856669
0.0829982
0.0804975
0.0780968
0.0757715
0.0735095
0.0713019
0.0691394
0.067012
0.0649084
0.0628158
0.0607193
0.0586017
0.0564423
0.054217
0.0518962
0.049442
0.0467964
0.043844
0.0402952
0.0362355
0.0351439
0.0368843
0.0397875
0.0424926
0.044045
0.0428593
0.0344743
0.0160797
0.00286953
0.102535
0.10173
0.100958
0.100186
0.099363
0.0984131
0.0972228
0.0956159
0.0933077
0.089828
0.0870045
0.0844962
0.0821411
0.0798742
0.0776688
0.0755122
0.0733966
0.0713153
0.0692611
0.0672261
0.0652012
0.0631762
0.0611391
0.0590763
0.0569704
0.0547992
0.0525299
0.0501072
0.0474182
0.0441937
0.0401305
0.0368843
0.0359067
0.0370668
0.0393108
0.0413427
0.0412772
0.0348205
0.0182532
0.00390541
0.0964842
0.0958578
0.0952955
0.0947702
0.094241
0.093648
0.0929055
0.0918897
0.0904299
0.0883205
0.0861029
0.0839033
0.0817364
0.0796006
0.0774944
0.0754168
0.0733665
0.0713414
0.0693381
0.0673528
0.065381
0.0634179
0.0614588
0.0594991
0.0575329
0.0555515
0.053539
0.0514617
0.0492391
0.0466692
0.0433859
0.0397876
0.0370669
0.0360961
0.03682
0.0383585
0.0388917
0.0343722
0.0202367
0.00522246
0.0896505
0.0891812
0.0887906
0.0884555
0.0881415
0.0877985
0.0873578
0.086727
0.0857933
0.0844466
0.0828116
0.0810106
0.0791187
0.0771797
0.0752203
0.0732571
0.0713004
0.0693566
0.0674299
0.0655232
0.0636394
0.0617817
0.0599545
0.0581627
0.0564113
0.0547033
0.0530353
0.0513879
0.0497042
0.0478396
0.0454873
0.0424927
0.0393108
0.03682
0.0356673
0.0357777
0.0359571
0.03283
0.021486
0.0066786
0.0816678
0.0813307
0.0810733
0.0808748
0.0807041
0.0805178
0.0802577
0.0798508
0.0792154
0.0782801
0.0770559
0.0756042
0.0739919
0.0722738
0.0704913
0.0686744
0.066845
0.0650197
0.0632121
0.0614343
0.0596981
0.0580162
0.0564022
0.0548704
0.0534346
0.0521052
0.0508837
0.0497544
0.0486701
0.0475215
0.0460791
0.044045
0.0413428
0.0383586
0.0357777
0.0340991
0.0329997
0.0302587
0.0215041
0.00796255
0.0719092
0.0716787
0.0715192
0.071411
0.0713254
0.0712229
0.0710536
0.0707579
0.0702733
0.0695489
0.0685714
0.0673675
0.0659835
0.0644683
0.0628661
0.0612134
0.0595402
0.057871
0.0562268
0.0546267
0.0530891
0.0516321
0.0502731
0.0490276
0.0479076
0.0469216
0.0460755
0.0453721
0.0448024
0.0443162
0.0437638
0.0428593
0.0412772
0.0388917
0.0359572
0.0329997
0.0303284
0.027031
0.0201129
0.00866518
0.0588809
0.0587346
0.0586466
0.0585971
0.0585585
0.0584943
0.0583603
0.0581068
0.0576848
0.0570562
0.056206
0.0551469
0.0539102
0.0525351
0.0510602
0.0495191
0.0479384
0.0463376
0.0447284
0.0431153
0.0415138
0.0399472
0.0384374
0.0370116
0.035708
0.0345793
0.0336928
0.0331228
0.0329347
0.0331735
0.0337921
0.0344742
0.0348204
0.0343722
0.03283
0.0302588
0.027031
0.0231985
0.0174591
0.0084694
0.0384526
0.0383622
0.0383198
0.0383037
0.0382853
0.0382287
0.038092
0.0378304
0.0374014
0.0367724
0.035928
0.0348723
0.0336246
0.0322119
0.0306619
0.0289989
0.0272418
0.0254054
0.0235031
0.0215526
0.0195837
0.0176461
0.0158126
0.0141751
0.01283
0.0118608
0.0113267