/*--------------------------------*- C++ -*----------------------------------*\
| =========                 |                                                 |
| \\      /  F ield         | OpenFOAM: The Open Source CFD Toolbox           |
|  \\    /   O peration     | Version:  2.1.0                                 |
|   \\  /    A nd           | Web:      www.OpenFOAM.org                      |
|    \\/     M anipulation  |                                                 |
\*---------------------------------------------------------------------------*/
FoamFile
{
    version     2.0;
    format      ascii;
    class       surfaceScalarField;
    location    "36135";
    object      phi_o;
}
// * * * * * * * * * * * * * * * * * * * * * * * * * * * * * * * * * * * * * //

dimensions      [1 -2 -2 0 0 0 0];

internalField   nonuniform List<scalar> 
22000
(
12.025
12.025
-20.311
20.1062
10.669
-15.2835
24.2785
8.83574
-9.9371
25.9156
7.10213
-6.03828
26.2309
5.6635
-3.58164
25.987
4.52476
-2.127
25.5971
3.63118
-1.28427
25.2649
2.92363
-0.795313
25.0806
2.3552
-0.506491
25.0749
1.89288
-0.330672
25.2482
1.5153
-0.219205
25.5843
1.20845
-0.145743
26.058
0.962165
-0.0962218
26.6413
0.768304
-0.0623074
27.306
0.619789
-0.0386086
28.0251
0.51046
-0.0216531
28.7739
0.435268
-0.00926234
29.5284
0.390505
-0.00010563
30.266
0.373958
0.00703313
30.9633
0.385084
0.0128393
31.5948
0.425039
0.0177699
32.1319
0.49661
0.0221206
32.5413
0.604027
0.0261111
32.7841
0.752518
0.0299272
32.8156
0.947454
0.0337031
32.5871
1.19294
0.0375575
32.0487
1.48977
0.0416462
31.1556
1.83295
0.0461503
29.8758
2.20947
0.0513069
28.1989
2.59795
0.0574698
26.1416
2.97146
0.0651542
23.7471
3.30412
0.0751358
21.0778
3.57832
0.0885947
18.2051
3.78798
0.1072
15.2048
3.93702
0.132736
12.161
4.03546
0.164331
9.18276
4.09566
0.187355
6.3982
4.12999
0.145624
3.62776
4.15022
-0.0720671
4.16088
-0.335152
10.669
20.1062
-15.2834
18.273
18.273
-12.0113
22.5449
15.5885
-8.16893
24.477
12.8683
-5.15241
25.0921
10.4816
-3.14697
25.0934
8.50887
-1.91198
24.8896
6.90791
-1.17495
24.6964
5.60626
-0.737395
24.6183
4.53865
-0.474055
24.6973
3.65698
-0.311134
24.9414
2.92934
-0.206572
25.338
2.33442
-0.137261
25.8641
1.85584
-0.0904231
26.4928
1.47923
-0.0582349
27.1966
1.19121
-0.0356223
27.95
0.979718
-0.019328
28.7291
0.834672
-0.0073472
29.5119
0.748547
0.00157274
30.2772
0.716964
0.00860915
31.0032
0.73889
0.0144071
31.6664
0.816731
0.0193777
32.2393
0.956292
0.0238116
32.6898
1.16649
0.0279167
32.979
1.45863
0.0318526
33.0611
1.84486
0.0357443
32.8839
2.33545
0.0397067
32.3919
2.93448
0.0438793
31.5321
3.63409
0.0484353
30.2643
4.40874
0.0535987
28.5724
5.21275
0.0597189
26.4742
5.9858
0.0673233
24.0213
6.66886
0.0772028
21.2874
7.22352
0.0905471
18.3542
7.63909
0.109041
15.3033
7.92734
0.134513
12.2212
8.11242
0.166206
9.21709
8.22194
0.189591
6.41843
8.28169
0.148053
3.63842
8.31363
-0.0717592
8.32886
-0.336906
8.83576
24.2784
-9.93709
15.5886
22.5448
-8.16893
19.8247
19.8246
-5.87295
22.0903
16.8647
-3.90363
23.1194
14.0976
-2.49457
23.4924
11.6825
-1.57366
23.5879
9.63153
-0.996956
23.6288
7.90048
-0.640567
23.7366
6.43716
-0.418699
23.9697
5.20063
-0.2774
24.3464
4.16438
-0.184747
24.8594
3.31042
-0.122659
25.4875
2.62235
-0.0804012
26.2048
2.08221
-0.051089
26.9851
1.67095
-0.0302647
27.8049
1.37045
-0.0151043
28.643
1.16528
-0.0038735
29.4803
1.04392
0.00464908
30.2991
0.999756
0.0115156
31.081
1.03126
0.0172874
31.8059
1.14219
0.0223336
32.4495
1.34167
0.0269068
32.9819
1.64406
0.0311848
33.3652
2.06828
0.0352999
33.5517
2.63602
0.0393605
33.483
3.36808
0.0434652
33.0915
4.27754
0.047732
32.3068
5.35948
0.052311
31.0683
6.57831
0.0574208
29.3454
7.85849
0.0634111
27.1573
9.09035
0.0708129
24.576
10.1624
0.0804315
21.703
11.0084
0.0934818
18.6424
11.6182
0.111684
15.4883
12.0217
0.136935
12.3307
12.2662
0.168604
9.27684
12.4004
0.192289
6.45037
12.4663
0.150954
3.65365
12.4968
-0.0709537
12.5097
-0.338615
7.10216
25.9155
-6.0383
12.8684
24.4769
-5.15241
16.8648
22.0902
-3.90363
19.3231
19.3231
-2.73936
20.7043
16.5697
-1.84111
21.4414
14.026
-1.21382
21.8569
11.754
-0.797844
22.1655
9.75041
-0.527594
22.5001
7.9931
-0.351767
22.9335
6.46519
-0.235554
23.4925
5.16101
-0.157437
24.1713
4.07902
-0.104312
24.9474
3.20924
-0.0676671
25.7935
2.53144
-0.0418623
26.6846
2.02007
-0.0232315
27.5997
1.64967
-0.00949132
28.5216
1.39853
0.000789403
29.4361
1.25083
0.00889822
30.3306
1.19744
0.0155981
31.192
1.23625
0.0213686
32.0054
1.37237
0.0265275
32.7519
1.61844
0.0312937
33.4062
1.99497
0.0358071
33.933
2.53028
0.0401726
34.2838
3.25941
0.0444727
34.3924
4.22038
0.048765
34.1735
5.44567
0.0531325
33.5256
6.94596
0.0577021
32.3485
8.68483
0.062679
30.5773
10.5511
0.0684122
28.2294
12.3535
0.075441
25.4219
13.8811
0.0845896
22.3128
15.0285
0.0971094
19.046
15.803
0.114782
15.7328
16.2747
0.139611
12.4649
16.5305
0.171135
9.34273
16.6488
0.195097
6.4808
16.691
0.154025
3.66662
16.7011
-0.0697178
16.7026
-0.339821
5.66355
26.2308
-3.58167
10.4817
25.0921
-3.14697
14.0977
23.1193
-2.49457
16.5698
20.7042
-1.8411
18.1606
18.1605
-1.29986
19.1694
15.6769
-0.896114
19.8533
13.3401
-0.611714
20.4082
11.1787
-0.416437
20.9722
9.20123
-0.282957
21.6293
7.42287
-0.19132
22.4105
5.87464
-0.128183
23.3015
4.58934
-0.0844053
24.2696
3.56819
-0.0535811
25.2822
2.7856
-0.0314088
26.3142
2.20496
-0.0151025
27.3486
1.7903
-0.00292106
28.3739
1.51212
0.00648362
29.3828
1.34973
0.0141648
30.3694
1.29137
0.0207411
31.3281
1.33417
0.0265857
32.2515
1.48434
0.0319504
33.1285
1.7578
0.0370184
33.9415
2.18123
0.0418862
34.6621
2.79355
0.0466168
35.2447
3.6468
0.0512471
35.6177
4.80483
0.0557936
35.6737
6.3358
0.0603026
35.2645
8.29123
0.0648623
34.2147
10.6616
0.0696463
32.3797
13.3054
0.0749843
29.757
15.8893
0.0814226
26.5692
17.978
0.089825
23.0873
19.4195
0.10151
19.5177
20.2886
0.118348
15.9886
20.742
0.142461
12.5832
20.9311
0.173573
9.38492
20.9734
0.19762
6.49093
20.9508
0.156707
3.66818
20.9163
-0.0688183
20.8952
-0.340916
4.52479
25.9868
-2.12702
8.50891
25.0933
-1.91199
11.6826
23.4923
-1.57367
14.0261
21.4413
-1.21382
15.677
19.1693
-0.896115
16.8327
16.8325
-0.643726
17.6918
14.517
-0.454759
18.4307
12.263
-0.317446
19.1938
10.098
-0.219018
20.0811
8.06858
-0.149138
21.1252
6.26361
-0.0997347
22.2804
4.78748
-0.0645799
23.487
3.65034
-0.0391657
24.7015
2.80676
-0.0204464
25.8996
2.19817
-0.00644026
27.0704
1.77276
0.00427213
28.2115
1.49177
0.0129743
29.3244
1.32939
0.0203649
30.4122
1.27137
0.0269331
31.4783
1.31408
0.0329883
32.5249
1.46427
0.0387233
33.5519
1.74
0.0442622
34.5538
2.17282
0.0496568
35.5153
2.81128
0.0549301
36.4028
3.72578
0.0600656
37.1487
5.01354
0.065017
37.6292
6.79926
0.0697746
37.6349
9.21965
0.0743686
36.8585
12.3631
0.0789141
34.9636
16.1175
0.0836981
31.8457
19.9177
0.0892565
28.0107
22.7195
0.0965193
23.9564
24.38
0.106956
19.971
25.1874
0.122592
16.1778
25.471
0.145687
12.6255
25.4769
0.176139
9.36227
25.3631
0.199982
6.45641
25.2251
0.158774
3.64707
25.1178
-0.0690479
25.0615
-0.342364
3.6312
25.597
-1.28429
6.90794
24.8894
-1.17496
9.63161
23.5878
-0.996948
11.7541
21.8567
-0.797835
13.3403
19.8531
-0.61171
14.5171
17.6917
-0.454769
15.4379
15.4377
-0.330151
16.2657
13.1197
-0.234766
17.1644
10.7572
-0.163693
18.2761
8.41275
-0.111679
19.6491
6.26361
-0.0737769
21.1433
4.59848
-0.0459423
22.6434
3.3997
-0.0252313
24.0929
2.56055
-0.00963942
25.4742
1.98088
0.00228264
26.7894
1.58802
0.0119422
28.0491
1.3339
0.0201516
29.2664
1.18905
0.027456
30.4549
1.13796
0.03423
31.6285
1.17644
0.040713
32.8007
1.31092
0.0470524
33.9847
1.5595
0.0533271
35.1922
1.95501
0.0595337
36.4299
2.55084
0.065637
37.6905
3.43083
0.0715638
38.9344
4.7247
0.0771957
40.0496
6.62927
0.0824309
40.7783
9.42653
0.0872053
40.613
13.4548
0.0915505
38.7637
18.8842
0.0956709
34.6476
24.9433
0.100007
29.6711
28.6
0.105533
24.7639
30.1903
0.114064
20.2547
30.6066
0.127938
16.1836
30.4748
0.149585
12.5117
30.14
0.179017
9.22427
29.7765
0.202207
6.34917
29.4707
0.1599
3.59078
29.2641
-0.0713478
29.1612
-0.344653
2.92365
25.2647
-0.795323
5.6063
24.6963
-0.737394
7.90055
23.6287
-0.640573
9.7505
22.1653
-0.5276
11.1788
20.408
-0.416445
12.2631
18.4305
-0.31745
13.1198
16.2655
-0.234765
13.9032
13.903
-0.168926
14.82
11.308
-0.118276
16.127
8.49085
-0.0800171
17.9839
5.72259
-0.0512317
19.9445
3.89626
-0.029327
21.8043
2.75046
-0.0125651
23.5133
2.02187
0.000340289
25.0813
1.54945
0.0108386
26.5353
1.24215
0.0198116
27.9043
1.04881
0.0278502
29.2153
0.941085
0.0353574
30.4934
0.904819
0.0426287
31.7629
0.936101
0.0498392
33.0492
1.04004
0.0571006
34.3802
1.23171
0.0644623
35.7881
1.53937
0.0718797
37.3098
2.0114
0.0792616
38.9844
2.72951
0.086452
40.839
3.83469
0.0932267
42.8468
5.57761
0.0993664
44.8066
8.41407
0.104694
46.0423
13.1566
0.109153
44.8228
21.0299
0.112809
38.3043
32.376
0.115655
31.2614
36.5474
0.118373
25.1801
37.1726
0.12384
20.1229
36.5703
0.135036
15.8487
35.6783
0.15459
12.1482
34.8292
0.182518
8.9185
34.132
0.204462
6.14255
33.6192
0.159839
3.48793
33.2964
-0.0766524
33.1402
-0.348152
2.35521
25.0805
-0.506507
4.53869
24.6181
-0.474066
6.43721
23.7364
-0.418717
7.99319
22.4999
-0.351777
9.20132
20.972
-0.282972
10.0981
19.1936
-0.219021
10.7573
17.1642
-0.163692
11.3082
14.8198
-0.118276
12.0028
12.0026
-0.0822442
13.3587
8.4563
-0.0543274
16.1576
4.18718
-0.0329946
18.7987
2.46904
-0.0159
21.0757
1.64642
-0.00232434
23.0408
1.19623
0.00881883
24.774
0.928547
0.0184406
26.342
0.764083
0.0271276
27.7966
0.665697
0.0353115
29.179
0.61488
0.0433046
30.5247
0.602908
0.0513523
31.8669
0.627375
0.0595922
33.2409
0.691188
0.068118
34.6879
0.803122
0.0769632
36.2601
0.980044
0.0860537
38.028
1.25189
0.0952517
40.0896
1.67234
0.10431
42.5819
2.34294
0.112871
45.6833
3.47257
0.120576
49.5491
5.53883
0.127177
53.9157
9.77186
0.132748
56.1689
19.7442
0.137518
42.4757
47.015
0.139826
31.8866
48.0562
0.137511
24.5778
45.386
0.137592
19.2309
42.8222
0.144622
14.9996
40.8358
0.161229
11.451
39.3642
0.18705
8.40573
38.3035
0.206996
5.81973
37.5798
0.158442
3.33178
37.1439
-0.0857983
36.9361
-0.352942
1.89289
25.0747
-0.330678
3.657
24.6972
-0.311152
5.20068
23.9695
-0.277407
6.46526
22.9333
-0.235558
7.42296
21.6291
-0.191324
8.06869
20.0808
-0.149137
8.41289
18.2759
-0.111678
8.49102
16.1267
-0.0800184
8.45655
13.3584
-0.0543274
9.08957
9.08911
-0.034745
14.4395
2.91005
-0.0215121
17.9761
5.45056
-0.00842397
20.6255
7.08817
0.0029143
22.7732
8.50733
0.0129438
24.6095
9.84412
0.0220277
26.2436
11.1465
0.0305512
27.7457
12.4405
0.0388519
29.167
13.7436
0.0472147
30.5491
15.0716
0.0558667
31.9307
16.4397
0.0649467
33.3528
17.865
0.0745667
34.8648
19.3687
0.084766
36.5319
20.9791
0.0954634
38.4484
22.7357
0.106487
40.7602
24.7025
0.117496
43.7116
26.9958
0.127987
47.7495
29.8757
0.13746
53.7821
34.1085
0.145794
63.888
42.6591
0.154263
83.4397
69.5722
0.166422
43.517
88.1269
0.176545
29.2164
63.3836
0.164667
22.014
53.5263
0.155785
17.2446
48.504
0.15697
13.528
45.4784
0.169833
10.3903
43.4874
0.193012
7.682
42.1404
0.210145
5.38381
41.2554
0.155691
3.12397
40.7356
-0.0994228
40.4881
-0.358693
1.5153
25.248
-0.219209
2.92936
24.9412
-0.206576
4.16444
24.3463
-0.184745
5.16108
23.4923
-0.157441
5.87471
22.4103
-0.128193
6.26371
21.125
-0.0997362
6.26372
19.6488
-0.0737773
5.7227
17.9836
-0.0512382
4.18728
16.1573
-0.0329903
2.91051
14.4391
-0.0215077
16.98
16.9793
-0.306897
19.6137
27.4121
-0.45664
22.0446
34.7107
-0.558452
24.1099
40.4585
-0.656353
25.9119
45.3124
-0.753144
27.5375
49.5981
-0.851234
29.0489
53.5015
-0.953174
30.495
57.1436
-1.06015
31.9173
60.6124
-1.17357
33.3559
63.9813
-1.29565
34.8565
67.3214
-1.42763
36.4752
70.7088
-1.57166
38.2886
74.236
-1.73092
40.4152
78.0252
-1.9079
43.0535
82.2528
-2.1071
46.5914
87.1911
-2.33511
51.9823
93.2696
-2.59944
62.3328
101.061
-2.8993
90.8011
110.311
-3.10916
101.994
111.872
-2.21736
18.7737
72.87
0.168066
19.3592
63.7936
0.169856
16.9917
56.8415
0.167686
14.2189
52.1985
0.169015
11.537
49.0903
0.17984
9.04329
46.9692
0.200589
6.79705
45.5205
0.214273
4.864
44.5705
0.151696
2.87642
44.017
-0.117912
43.7496
-0.364605
1.20846
25.584
-0.145745
2.33445
25.3378
-0.137253
3.31047
24.8592
-0.122652
4.07907
24.1711
-0.104323
4.5894
23.3013
-0.0844092
4.78755
22.2802
-0.06458
4.59857
21.143
-0.0459431
3.89633
19.9442
-0.0293308
2.4691
18.7984
-0.0158999
5.45073
17.9757
-0.00842546
27.4128
19.6133
-0.456656
26.9122
26.9117
-0.306332
27.7925
33.1916
-0.286963
28.9638
38.5892
-0.327956
30.1976
43.3154
-0.381171
31.4409
47.5407
-0.437189
32.6911
51.3945
-0.492689
33.9637
54.9738
-0.547225
35.2862
58.3553
-0.60075
36.696
61.6035
-0.654149
38.244
64.777
-0.708877
40.0023
67.9324
-0.767294
42.0778
71.1279
-0.833239
44.6429
74.4233
-0.911303
47.9917
77.8742
-1.01053
52.6699
81.5043
-1.14653
59.7738
85.2062
-1.34568
71.5827
88.4068
-1.65129
92.3622
89.0366
-2.07808
62.9922
80.9153
-2.1356
9.69737
66.0111
0.129458
12.4071
62.0852
0.169114
12.3486
57.8555
0.177441
11.1107
54.3667
0.181024
9.41591
51.7212
0.191105
7.59459
49.7844
0.209904
5.84709
48.4112
0.219669
4.31053
47.4964
0.146569
2.60896
46.9633
-0.14149
46.6975
-0.369491
0.962179
26.0578
-0.0962238
1.85587
25.8639
-0.0904233
2.62238
25.4873
-0.0804065
3.20927
24.9471
-0.0676792
3.56825
24.2693
-0.0535798
3.65039
23.4867
-0.039166
3.39976
22.6432
-0.0252337
2.75051
21.804
-0.0125716
1.64646
21.0754
-0.00232246
7.0883
20.6252
0.00291246
34.7112
22.0443
-0.558465
33.192
27.7921
-0.286967
33.19
33.1896
-0.165783
33.69
38.1159
-0.145765
34.4229
42.5886
-0.14786
35.2948
46.6653
-0.158687
36.2704
50.4146
-0.172986
37.3453
53.9003
-0.188984
38.5344
57.1777
-0.205968
39.8694
60.2941
-0.223941
41.3995
63.2899
-0.243398
43.1978
66.1979
-0.264671
45.3732
69.0396
-0.289441
48.0938
71.8176
-0.319203
51.6219
74.4927
-0.356201
56.3718
76.9359
-0.404007
62.9743
78.8204
-0.463996
72.2126
79.3994
-0.526988
84.2409
77.1477
-0.537618
48.088
69.6332
-0.295549
5.77151
62.6284
0.139652
8.17733
60.6802
0.179241
8.85986
58.1337
0.189828
8.46512
55.6987
0.194201
7.47911
53.6507
0.203769
6.22145
52.0448
0.221012
4.93231
50.8577
0.226467
3.77744
50.0515
0.140257
2.34314
49.5819
-0.170405
49.3354
-0.372055
0.768331
26.6411
-0.0623001
1.47926
26.4926
-0.0582369
2.08223
26.2045
-0.0511011
2.53148
25.7933
-0.0418572
2.78565
25.2819
-0.0313983
2.80681
24.7013
-0.0204459
2.56059
24.0927
-0.009642
2.02191
23.513
0.000337794
1.19625
23.0406
0.008818
8.50744
22.7729
0.012947
40.459
24.1097
-0.656368
38.5896
28.9635
-0.327962
38.1163
33.6897
-0.145767
38.1627
38.1624
-0.101751
38.4996
42.3335
-0.0872414
39.0441
46.1992
-0.0847795
39.7561
49.7836
-0.0878182
40.6226
53.1202
-0.0934406
41.6508
56.2427
-0.100822
42.8653
59.1815
-0.109224
44.3074
61.959
-0.118655
46.0395
64.5875
-0.129317
48.1512
67.0621
-0.141683
50.7689
69.3484
-0.156088
54.0651
71.3616
-0.172992
58.2563
72.928
-0.192006
63.5533
73.7228
-0.209225
69.9608
73.1924
-0.212245
76.7264
70.5338
-0.167473
41.0832
64.992
-0.00763983
3.82336
60.947
0.160666
5.63077
59.8706
0.194998
6.42491
58.3039
0.204636
6.41709
56.65
0.208725
5.87321
55.1459
0.217836
5.03432
53.898
0.233925
4.12611
52.942
0.234684
3.30784
52.2841
0.132449
2.09667
51.9042
-0.205061
51.6886
-0.371311
0.619809
27.3058
-0.0386045
1.19124
27.1964
-0.0356187
1.67097
26.9849
-0.0302732
2.02011
26.6844
-0.0232252
2.205
26.314
-0.015098
2.19822
25.8994
-0.00644137
1.98091
25.4739
0.00227375
1.54948
25.0811
0.0108364
0.928563
24.7737
0.0184327
9.84423
24.6093
0.0220271
45.3128
25.9117
-0.753163
43.3158
30.1973
-0.381178
42.589
34.4226
-0.147862
42.3339
38.4993
-0.0872423
42.3654
42.365
-0.0631035
42.6285
45.9896
-0.0533825
43.0926
49.3705
-0.050618
43.7452
52.5196
-0.0513536
44.5896
55.4533
-0.0539911
45.6428
58.1869
-0.0579166
46.9359
60.7295
-0.062578
48.5142
63.0786
-0.067852
50.4374
65.2136
-0.0741711
52.7821
67.0855
-0.0809753
55.6315
68.6012
-0.0880559
59.0511
69.603
-0.0942307
63.0229
69.8464
-0.0953764
67.3022
68.9957
-0.0824029
71.1846
66.6888
-0.0371308
37.0382
62.7622
0.0713772
2.747
60.1883
0.182063
4.06403
59.5488
0.212576
4.77101
58.5643
0.220799
4.91301
57.4572
0.224373
4.62534
56.3936
0.233331
4.07825
55.4738
0.248706
3.46827
54.7518
0.244277
2.92795
54.2557
0.122507
1.881
53.976
-0.245967
53.7971
-0.366991
0.510472
28.025
-0.0216546
0.97973
27.9498
-0.0193331
1.37047
27.8047
-0.0151043
1.64971
27.5995
-0.00948746
1.79033
27.3484
-0.00291685
1.7728
27.0702
0.00427336
1.58804
26.7892
0.0119281
1.24217
26.5351
0.0198064
0.764095
26.3417
0.0271231
11.1466
26.2433
0.0305503
49.5985
27.5373
-0.851256
47.541
31.4407
-0.437198
46.6657
35.2945
-0.15869
46.1996
39.0438
-0.0847809
45.9899
42.6282
-0.053383
46.0094
46.009
-0.039047
46.2417
49.1712
-0.0326264
46.679
52.1132
-0.0304729
47.3231
54.8402
-0.0305619
48.1854
57.3573
-0.0318872
49.2851
59.6646
-0.033962
50.6491
61.7519
-0.0364295
52.3093
63.5932
-0.039428
54.2979
65.1395
-0.0422006
56.6333
66.3104
-0.044348
59.2945
66.9865
-0.0445196
62.1722
67.0084
-0.0392754
64.9953
66.1958
-0.0224769
67.258
64.4086
0.0180445
34.4643
61.6684
0.105665
2.10758
59.9646
0.202444
3.07952
59.5711
0.230675
3.66388
58.9507
0.237772
3.84938
58.2268
0.241075
3.70562
57.5071
0.250396
3.35622
56.8692
0.265503
2.97216
56.3648
0.255145
2.64826
56.0284
0.109392
1.70207
55.848
-0.293405
55.7085
-0.359744
0.435272
28.7737
-0.00926522
0.83467
28.7289
-0.00735167
1.16531
28.6428
-0.0038679
1.39857
28.5214
0.000791383
1.51214
28.3737
0.00648218
1.49179
28.2113
0.012966
1.33392
28.0489
0.02014
1.04882
27.9041
0.0278382
0.66571
27.7963
0.0353077
12.4406
27.7455
0.0388523
53.5019
29.0487
-0.953202
51.3949
32.6908
-0.4927
50.415
36.2701
-0.17299
49.784
39.7558
-0.08782
49.3708
43.0923
-0.0506188
49.1716
46.2414
-0.0326267
49.1837
49.1834
-0.0238599
49.406
51.9116
-0.0197371
49.8402
54.4251
-0.0182151
50.4926
56.7241
-0.0181055
51.3724
58.8047
-0.018705
52.4904
60.6547
-0.0196075
53.8556
62.2497
-0.0208187
55.4688
63.5488
-0.0214923
57.3094
64.4919
-0.0211732
59.3164
64.9987
-0.0186566
61.3596
64.9767
-0.0110831
63.2081
64.3408
0.0065752
64.5178
63.0549
0.0445595
32.7605
61.1879
0.126004
1.71405
60.0605
0.2221
2.45906
59.821
0.249088
2.94005
59.4445
0.255514
3.12969
58.9991
0.259005
3.06771
58.5505
0.26931
2.85175
58.1519
0.284532
2.63579
57.8443
0.267061
2.46784
57.6599
0.0915761
1.56256
57.5713
-0.346875
57.4731
-0.350976
0.390488
29.5282
-0.000108627
0.748547
29.5117
0.00157188
1.04394
29.4801
0.00465572
1.25085
29.436
0.00889858
1.34975
29.3826
0.0141602
1.32939
29.3242
0.0203522
1.18908
29.2662
0.0274502
0.941091
29.2151
0.0353428
0.614896
29.1788
0.0432985
13.7437
29.1668
0.0472142
57.144
30.4947
-1.06019
54.9741
33.9635
-0.547237
53.9007
37.345
-0.188988
53.1205
40.6224
-0.0934425
52.5199
43.7449
-0.0513546
52.1135
46.6787
-0.0304734
51.9119
49.4057
-0.0197373
51.9195
51.9192
-0.0143128
52.1392
54.2182
-0.0117562
52.5732
56.3021
-0.0107602
53.2224
58.1672
-0.0104931
54.0854
59.8036
-0.010551
55.1548
61.1921
-0.0107717
56.4118
62.3033
-0.0102995
57.8163
63.0972
-0.00867987
59.2944
63.5265
-0.0048924
60.7236
63.5444
0.00379506
61.9222
63.1213
0.0218132
62.6508
62.2674
0.0592299
31.6331
61.0578
0.141203
1.47458
60.3421
0.241634
2.08251
60.2102
0.268051
2.49473
60.012
0.274267
2.68107
59.7827
0.27851
2.66908
59.5575
0.290469
2.54415
59.3679
0.306056
2.45144
59.2413
0.279612
2.37926
59.2022
0.0669716
1.46433
59.1963
-0.404639
59.1419
-0.342475
0.373931
30.2658
0.00702107
0.71697
30.277
0.00860781
0.999782
30.2989
0.0115182
1.19745
30.3304
0.0155941
1.29137
30.3692
0.0207274
1.27137
30.412
0.0269226
1.13797
30.4547
0.0342328
0.90483
30.4932
0.0426216
0.602926
30.5245
0.0513452
15.0717
30.5489
0.0558579
60.6128
31.9171
-1.17361
58.3557
35.286
-0.600762
57.178
38.5342
-0.205972
56.2431
41.6506
-0.100824
55.4537
44.5893
-0.053992
54.8405
47.3228
-0.0305625
54.4254
49.84
-0.0182154
54.2185
52.139
-0.0117563
54.2231
54.2228
-0.00846535
54.4383
56.0945
-0.0069088
54.8588
57.7537
-0.00606084
55.4739
59.195
-0.00557588
56.266
60.4063
-0.00519099
57.2057
61.3691
-0.00401085
58.2456
62.0608
-0.00173195
59.3124
62.4581
0.00270077
60.3005
62.5451
0.0118793
61.0682
62.3238
0.0304691
61.4412
61.8258
0.0689587
30.9174
61.1219
0.154557
1.34277
60.7163
0.261634
1.88431
60.6694
0.287962
2.26535
60.6168
0.294432
2.45596
60.5713
0.300063
2.47948
60.5452
0.314367
2.41754
60.5499
0.330357
2.41229
60.5979
0.292164
2.3734
60.7017
0.0329818
1.40989
60.773
-0.463776
60.7661
-0.336005
0.385064
30.9631
0.0128276
0.738895
31.003
0.0144014
1.03129
31.0809
0.0172859
1.23626
31.1918
0.0213604
1.33417
31.3279
0.02657
1.31408
31.4781
0.0329847
1.17645
31.6283
0.0407228
0.936117
31.7628
0.0498425
0.627389
31.8667
0.059587
16.4398
31.9305
0.0649306
63.9817
33.3557
-1.29568
61.6039
36.6958
-0.654158
60.2944
39.8692
-0.223942
59.1818
42.8651
-0.109224
58.1872
45.6425
-0.0579173
57.3576
48.1851
-0.0318877
56.7244
50.4923
-0.0181059
56.3023
52.5729
-0.0107604
56.0947
54.4381
-0.00690891
56.0976
56.0973
-0.00502518
56.3
57.556
-0.00380657
56.6852
58.8139
-0.00292433
57.2288
59.8658
-0.00220301
57.8973
60.7025
-0.000627567
58.6429
61.3144
0.00194565
59.3994
61.6953
0.00690208
60.0792
61.8494
0.0166952
60.5702
61.7972
0.0361548
60.7373
61.5825
0.0766693
30.5118
61.2723
0.167626
1.29588
61.1094
0.282669
1.83165
61.1392
0.309332
2.21984
61.2216
0.316568
2.42989
61.3517
0.324303
2.48414
61.5214
0.341618
2.46553
61.7223
0.357724
2.51611
61.9507
0.30401
2.44469
62.2016
-0.011672
1.40303
62.3527
-0.520658
62.3986
-0.332948
0.42503
31.5946
0.0177616
0.816738
31.6662
0.019377
1.14221
31.8057
0.0223339
1.37237
32.0052
0.0265188
1.48434
32.2513
0.0319414
1.46427
32.5247
0.0387203
1.31094
32.8005
0.0470599
1.04006
33.0491
0.0571098
0.6912
33.2407
0.0681147
17.8651
33.3527
0.0745506
67.3217
34.8564
-1.42765
64.7773
38.2438
-0.708903
63.2902
41.3993
-0.24339
61.9593
44.3072
-0.118654
60.7298
46.9357
-0.0625782
59.6649
49.2848
-0.0339625
58.805
51.3721
-0.0187055
58.1675
53.2222
-0.0104935
57.754
54.8585
-0.00606103
57.5563
56.2998
-0.00380667
57.5579
57.5577
-0.00229979
57.7371
58.6374
-0.00115295
58.0655
59.5387
-0.000218968
58.5092
60.2588
0.00151655
59.0238
60.7965
0.00430229
59.5535
61.1567
0.00957198
60.0271
61.3563
0.019946
60.3554
61.4289
0.0405906
60.4271
61.4275
0.0837208
30.349
61.4214
0.181208
1.32569
61.4531
0.305403
1.9141
61.5623
0.332882
2.34995
61.7877
0.341492
2.59953
62.1065
0.352084
2.68502
62.4892
0.372926
2.69402
62.9063
0.388334
2.76696
63.3359
0.314366
2.5958
63.7488
-0.0646265
1.44891
63.9901
-0.571761
64.0954
-0.334144
0.496611
32.1317
0.0221244
0.956307
32.2392
0.0238196
1.34168
32.4494
0.0269068
1.61844
32.7517
0.0312859
1.7578
33.1283
0.0370124
1.74001
33.5517
0.0442606
1.55952
33.9845
0.0533285
1.23173
34.38
0.0644705
0.803137
34.6877
0.0769604
19.3688
34.8646
0.0847541
70.7091
36.475
-1.57166
67.9327
40.0021
-0.767293
66.1982
43.1976
-0.264668
64.5878
46.0394
-0.129317
63.0789
48.514
-0.0678522
61.7522
50.6489
-0.03643
60.655
52.4902
-0.019608
59.8038
54.0852
-0.0105514
59.1953
55.4737
-0.00557617
58.8142
56.685
-0.00292452
58.6376
57.7369
-0.00115304
58.6384
58.6381
0.000124071
58.7857
59.391
0.00121193
59.0469
59.9957
0.0029802
59.384
60.4542
0.0059892
59.7531
60.7768
0.0116493
60.0997
60.9877
0.0226468
60.354
61.1305
0.0445936
60.421
61.2701
0.0907444
30.3807
61.4868
0.195827
1.43495
61.6752
0.330668
2.13949
61.8772
0.359615
2.66869
62.2716
0.370301
2.98222
62.8141
0.384438
3.1022
63.4495
0.408978
3.12356
64.1232
0.42193
3.17986
64.7902
0.321017
2.83709
65.3883
-0.127681
1.55427
65.7433
-0.615598
65.9186
-0.340134
0.604034
32.5412
0.0261247
1.16651
32.6896
0.0279269
1.64406
32.9818
0.0311845
1.99497
33.406
0.0358042
2.18124
33.9413
0.0418846
2.17283
34.5536
0.0496576
1.95503
35.1921
0.0595314
1.5394
35.7879
0.0718834
0.980064
36.2599
0.0860504
20.9791
36.5318
0.0954556
74.2363
38.2884
-1.73092
71.1282
42.0776
-0.833241
69.0399
45.3731
-0.289439
67.0624
48.151
-0.141683
65.2139
50.4373
-0.0741713
63.5935
52.3091
-0.0394285
62.25
53.8554
-0.0208193
61.1924
55.1546
-0.0107722
60.4066
56.2658
-0.00519134
59.8661
57.2286
-0.00220327
59.5389
58.0653
-0.000219123
59.3913
58.7854
0.00121186
59.3903
59.3901
0.00250299
59.5054
59.8771
0.00438666
59.7066
60.2462
0.00764178
59.964
60.5067
0.0136683
60.2425
60.6846
0.0252961
60.4935
60.8313
0.0485952
60.6377
61.028
0.0980808
30.5691
61.3797
0.211967
1.63701
61.689
0.359367
2.53388
62.01
0.390666
3.21112
62.6215
0.404261
3.6177
63.449
0.422463
3.77589
64.4034
0.450317
3.79058
65.3973
0.457866
3.77789
66.3562
0.321319
3.1921
67.1736
-0.199635
1.72956
67.679
-0.652019
67.9399
-0.351073
0.752522
32.7839
0.0299347
1.45864
32.9789
0.0318515
2.06827
33.3651
0.0352993
2.53029
33.9328
0.0401752
2.79356
34.662
0.046618
2.81129
35.5152
0.0549284
2.55086
36.4297
0.0656353
2.01142
37.3097
0.0792632
1.25191
38.0278
0.0952486
22.7357
38.4483
0.106483
78.0255
40.4151
-1.9079
74.4236
44.6427
-0.911301
71.8179
48.0936
-0.319201
69.3487
50.7688
-0.156087
67.0857
52.7819
-0.0809756
65.1398
54.2977
-0.0422011
63.5491
55.4686
-0.0214929
62.3036
56.4116
-0.0103
61.3694
57.2055
-0.00401127
60.7027
57.8971
-0.00062788
60.259
58.509
0.00151634
59.9959
59.0466
0.00298009
59.8773
59.5052
0.00438662
59.8745
59.8743
0.00640548
59.9671
60.1448
0.00988184
60.1419
60.3165
0.0161897
60.3893
60.4095
0.0283271
60.6901
60.4778
0.0529112
60.9894
60.6228
0.105932
30.8783
60.9943
0.229806
1.958
61.3809
0.392103
3.14539
61.8655
0.427029
4.03868
62.773
0.444553
4.57208
63.9817
0.467136
4.76974
65.354
0.497188
4.74955
66.7596
0.495045
4.59525
68.0859
0.312815
3.69744
69.1737
-0.275947
1.99047
69.8779
-0.68221
70.2467
-0.366665
0.947453
32.8155
0.0336937
1.84486
33.061
0.0357346
2.63603
33.5516
0.0393595
3.25943
34.2836
0.0444746
3.64681
35.2446
0.051248
3.7258
36.4026
0.0600601
3.43084
37.6904
0.0715629
2.72953
38.9843
0.086453
1.67235
40.0894
0.104308
24.7026
40.76
0.117495
82.2532
43.0534
-2.10709
77.8745
47.9916
-1.01053
74.493
51.6217
-0.356199
71.3618
54.0649
-0.172992
68.6015
55.6314
-0.0880563
66.3107
56.6332
-0.0443486
64.4921
57.3092
-0.0211738
63.0975
57.8161
-0.00868047
62.061
58.2454
-0.00173245
61.3146
58.6427
0.00194527
60.7967
59.0236
0.00430203
60.4544
59.3838
0.00598905
60.2464
59.7064
0.00764171
60.145
59.9668
0.00988183
60.1388
60.1385
0.0134832
60.2349
60.2012
0.0198936
60.4576
60.1547
0.0323064
60.8351
60.0425
0.0578828
61.3609
59.9829
0.114203
31.2649
60.1958
0.248627
2.44261
60.5913
0.428404
4.05287
61.316
0.469048
5.2474
62.6459
0.4919
5.94433
64.3799
0.518981
6.17537
66.3104
0.549302
6.0758
68.2526
0.531939
5.68309
70.0455
0.294319
4.40166
71.4789
-0.350244
2.35921
72.4419
-0.708787
72.9476
-0.386124
1.19295
32.587
0.0375384
2.33546
32.8838
0.0396941
3.36809
33.4829
0.0434616
4.2204
34.3923
0.0487573
4.80485
35.6176
0.0557897
5.01356
37.1486
0.0650116
4.72472
38.9343
0.0771945
3.8347
40.8389
0.0932271
2.34294
42.5818
0.112872
26.9959
43.7115
0.127986
87.1914
46.5913
-2.3351
81.5046
52.6698
-1.14652
76.9362
56.3717
-0.404005
72.9283
58.2562
-0.192006
69.6033
59.051
-0.0942312
66.9867
59.2943
-0.0445204
64.999
59.3162
-0.0186574
63.5267
59.2942
-0.00489315
62.4583
59.3122
0.00270015
61.6955
59.3992
0.00690162
61.1569
59.5533
0.00957166
60.777
59.7529
0.0116491
60.5069
59.9638
0.0136683
60.3167
60.1417
0.0161898
60.2014
60.2347
0.0198936
60.1884
60.1882
0.0262698
60.3454
59.9592
0.0385832
60.7755
59.5479
0.0643583
61.5738
59.0617
0.122686
31.6605
58.8087
0.266526
3.16729
59.0809
0.465161
5.38276
60.1848
0.515259
6.98137
62.1431
0.54572
7.87492
64.6143
0.577466
8.11755
67.2946
0.605552
7.86871
69.9354
0.567005
7.11642
72.3218
0.267773
5.36473
74.2045
-0.415284
2.8649
75.4992
-0.734173
76.1786
-0.407346
1.48979
32.0486
0.0416297
2.93449
32.3918
0.0438659
4.27756
33.0914
0.0477252
5.44569
34.1734
0.0531176
6.33582
35.6737
0.0602936
6.79929
37.6291
0.0697708
6.6293
40.0495
0.0824282
5.57761
42.8467
0.0993643
3.47257
45.6832
0.120577
29.8758
47.7495
0.137459
93.2699
51.9823
-2.59943
85.2065
59.7737
-1.34567
78.8207
62.9742
-0.463994
73.7231
63.5532
-0.209225
69.8467
63.0228
-0.0953773
67.0087
62.172
-0.0392765
64.977
61.3594
-0.0110842
63.5447
60.7235
0.00379404
62.5454
60.3003
0.0118784
61.8496
60.079
0.0166946
61.3565
60.0269
0.0199456
60.9879
60.0995
0.0226466
60.6848
60.2423
0.0252961
60.4097
60.3891
0.0283272
60.1549
60.4574
0.0323066
59.9594
60.3452
0.0385834
59.9341
59.9339
0.0501868
60.2894
59.1176
0.07454
61.3207
57.8983
0.131647
31.9327
56.6163
0.279505
4.2712
56.4624
0.493707
7.34101
58.2284
0.559899
9.4526
61.1611
0.602257
10.5552
64.6745
0.639822
10.7584
68.3519
0.663692
10.2551
71.8901
0.59954
8.99908
75.0264
0.240256
6.65949
77.4926
-0.462176
3.54431
79.2082
-0.756917
80.1073
-0.425147
1.83297
31.1555
0.0461395
3.6341
31.5321
0.0484205
5.35951
32.3067
0.0523007
6.94598
33.5255
0.0576891
8.29125
35.2644
0.0648531
9.21968
37.6348
0.0743666
9.42655
40.7783
0.0872029
8.41408
44.8065
0.10469
5.53883
49.5491
0.127176
34.1086
53.7821
0.145795
101.061
62.3327
-2.89929
88.407
71.5827
-1.65129
79.3997
72.2125
-0.526986
73.1927
69.9607
-0.212246
68.9959
67.3021
-0.0824044
66.196
64.9952
-0.0224788
64.341
63.2079
0.00657336
63.1216
61.922
0.0218117
62.3241
61.0681
0.0304679
61.7975
60.57
0.0361539
61.4291
60.3552
0.04059
61.1307
60.3538
0.0445933
60.8316
60.4933
0.0485952
60.478
60.6899
0.0529116
60.0427
60.8349
0.0578834
59.5481
60.7753
0.064359
59.1178
60.2891
0.0745406
59.0701
59.0699
0.0947495
60.0388
56.7852
0.143961
31.7788
53.4453
0.281383
6.03725
52.041
0.495797
10.2737
55.1325
0.588576
12.9659
59.6334
0.651126
14.2326
64.6009
0.698952
14.2966
69.5652
0.719776
13.3914
74.2241
0.630809
11.4653
78.2956
0.225231
8.37504
81.5102
-0.477607
4.44341
83.758
-0.766137
84.935
-0.427537
2.20948
29.8757
0.0512967
4.40877
30.2642
0.0535875
6.57833
31.0682
0.057408
8.68486
32.3484
0.0626726
10.6616
34.2147
0.0696395
12.3631
36.8585
0.0789141
13.4548
40.6129
0.0915512
13.1566
46.0423
0.10915
9.77188
53.9156
0.132745
42.6592
63.888
0.154264
110.311
90.8012
-3.10916
89.0369
92.3622
-2.07807
77.1479
84.2409
-0.537617
70.534
76.7263
-0.167474
66.689
71.1845
-0.037134
64.4088
67.2579
0.0180408
63.0551
64.5177
0.044556
62.2676
62.6506
0.059227
61.826
61.441
0.0689566
61.5827
60.7371
0.0766679
61.4277
60.4269
0.08372