/*--------------------------------*- C++ -*----------------------------------*\
| =========                 |                                                 |
| \\      /  F ield         | OpenFOAM: The Open Source CFD Toolbox           |
|  \\    /   O peration     | Version:  2.1.0                                 |
|   \\  /    A nd           | Web:      www.OpenFOAM.org                      |
|    \\/     M anipulation  |                                                 |
\*---------------------------------------------------------------------------*/
FoamFile
{
    version     2.0;
    format      ascii;
    class       volScalarField;
    location    "36135";
    object      so;
}
// * * * * * * * * * * * * * * * * * * * * * * * * * * * * * * * * * * * * * //

dimensions      [0 0 0 0 0 0 0];

internalField   nonuniform List<scalar> 
8000
(
0.265774
0.278036
0.293511
0.310218
0.326998
0.343263
0.358735
0.373297
0.386922
0.399627
0.411465
0.422498
0.432778
0.442358
0.451295
0.459648
0.467474
0.474828
0.48176
0.488321
0.494562
0.50053
0.506269
0.511824
0.517243
0.522573
0.527871
0.533199
0.538635
0.544275
0.550243
0.55671
0.563921
0.572263
0.582416
0.59572
0.615103
0.6472
0.703628
0.774331
0.278035
0.289255
0.303385
0.318765
0.334379
0.34968
0.364381
0.378335
0.391486
0.403828
0.415389
0.426206
0.436313
0.445752
0.454571
0.462824
0.470563
0.477838
0.484696
0.491188
0.49736
0.503255
0.508917
0.514385
0.519703
0.524917
0.530079
0.535252
0.540513
0.545961
0.551728
0.557989
0.564998
0.573151
0.583132
0.59629
0.615577
0.647676
0.704221
0.77468
0.29351
0.303385
0.315889
0.32967
0.343883
0.358015
0.371768
0.384974
0.397542
0.409438
0.420658
0.431204
0.441091
0.450344
0.459004
0.467116
0.474729
0.481885
0.488631
0.495013
0.501073
0.50685
0.512381
0.517702
0.522851
0.52787
0.532807
0.537727
0.54271
0.547864
0.55333
0.559299
0.566039
0.57395
0.583725
0.596718
0.615894
0.647979
0.704614
0.774914
0.310217
0.318765
0.32967
0.341887
0.354694
0.367634
0.380411
0.392839
0.404805
0.416243
0.427108
0.437367
0.447012
0.456057
0.464532
0.472479
0.479938
0.486948
0.493554
0.499798
0.505716
0.51134
0.516702
0.521831
0.526756
0.531513
0.536147
0.540721
0.54532
0.550066
0.555121
0.5607
0.567089
0.574701
0.584233
0.597042
0.6161
0.648166
0.704887
0.775086
0.326998
0.334379
0.343883
0.354694
0.366221
0.378058
0.389925
0.401632
0.413051
0.424076
0.434618
0.44461
0.454022
0.462857
0.471142
0.478911
0.486198
0.493048
0.499501
0.505592
0.511353
0.516809
0.521982
0.526892
0.531557
0.536003
0.540264
0.5444
0.548502
0.552709
0.557217
0.562283
0.568222
0.575466
0.584712
0.597316
0.616255
0.648316
0.705145
0.775265
0.343262
0.349679
0.358015
0.367634
0.378058
0.388937
0.400022
0.411129
0.422111
0.432823
0.443126
0.452912
0.462129
0.470776
0.478877
0.486466
0.493583
0.500272
0.506572
0.512514
0.518122
0.523414
0.528402
0.533091
0.537487
0.541594
0.545431
0.549042
0.55252
0.556025
0.559805
0.56419
0.569549
0.576333
0.585241
0.597619
0.616446
0.648534
0.705522
0.775532
0.358735
0.36438
0.371768
0.380411
0.389925
0.400021
0.410489
0.421159
0.431867
0.442433
0.452656
0.462349
0.471442
0.47994
0.487877
0.4953
0.502261
0.508806
0.514971
0.520786
0.52627
0.53143
0.536268
0.540774
0.544928
0.54871
0.552103
0.555119
0.557831
0.560415
0.563198
0.566655
0.57124
0.577435
0.585931
0.598056
0.616782
0.648951
0.706173
0.775979
0.373297
0.378335
0.384974
0.392839
0.401633
0.411129
0.421159
0.431578
0.442238
0.452946
0.463394
0.47319
0.482263
0.490666
0.498471
0.50576
0.512596
0.519033
0.525107
0.530847
0.536266
0.541367
0.546138
0.550551
0.55456
0.558101
0.561102
0.563501
0.565299
0.566653
0.567986
0.570089
0.573576
0.57897
0.586935
0.598758
0.617394
0.649713
0.707271
0.776695
0.386922
0.391486
0.397541
0.404805
0.41305
0.422111
0.431867
0.442238
0.453169
0.464556
0.475971
0.48619
0.495374
0.503746
0.511476
0.518684
0.525456
0.531854
0.537921
0.543685
0.54916
0.554344
0.559216
0.563732
0.567818
0.571358
0.574187
0.576098
0.576892
0.576543
0.575516
0.575335
0.577044
0.581229
0.588451
0.599882
0.618424
0.650976
0.708986
0.777756
0.399627
0.403827
0.409438
0.416243
0.424076
0.432823
0.442433
0.452946
0.464556
0.477759
0.49312
0.504193
0.513614
0.52205
0.529805
0.537053
0.543907
0.550442
0.556714
0.562757
0.568594
0.574226
0.579637
0.584777
0.589553
0.593798
0.59723
0.59938
0.599504
0.596657
0.590536
0.58467
0.582585
0.584623
0.590695
0.601575
0.620003
0.652876
0.711466
0.7792
0.411465
0.415389
0.420658
0.427108
0.434618
0.443126
0.452656
0.463394
0.475971
0.49312
0.757251
0.765917
0.761969
0.759717
0.758667
0.758386
0.758636
0.759262
0.760154
0.76122
0.762385
0.763569
0.764688
0.765637
0.766276
0.76637
0.765481
0.762596
0.754752
0.73202
0.595536
0.589627
0.587158
0.58826
0.593475
0.603845
0.622192
0.655502
0.714805
0.781013
0.422497
0.426206
0.431205
0.437367
0.44461
0.452912
0.462349
0.47319
0.48619
0.504193
0.765917
0.796941
0.797846
0.79751
0.797283
0.797167
0.797133
0.797158
0.797227
0.797323
0.797434
0.797548
0.797652
0.797732
0.797773
0.797747
0.797597
0.7972
0.796196
0.79354
0.600984
0.593959
0.591301
0.591943
0.596605
0.606608
0.624977
0.658881
0.719032
0.783123
0.432777
0.436313
0.441091
0.447012
0.454022
0.462129
0.471442
0.482263
0.495375
0.513615
0.761968
0.797846
0.799864
0.79991
0.799897
0.799888
0.799885
0.799884
0.799886
0.799889
0.799893
0.799899
0.799904
0.799908
0.799908
0.799907
0.799899
0.79988
0.799835
0.799743
0.606335
0.59815
0.595298
0.595665
0.599979
0.609771
0.628303
0.662995
0.724114
0.785416
0.442358
0.445752
0.450344
0.456057
0.462857
0.470776
0.47994
0.490666
0.503746
0.52205
0.759717
0.79751
0.79991
0.799996
0.799997
0.799996
0.799996
0.799996
0.799996
0.799996
0.799996
0.799997
0.799997
0.799997
0.799997
0.799997
0.799997
0.799996
0.799996
0.799992
0.61163
0.602335
0.599271
0.599441
0.60354
0.613261
0.63211
0.667806
0.729965
0.787752
0.451295
0.454571
0.459004
0.464533
0.471142
0.478877
0.487877
0.498471
0.511476
0.529805
0.758667
0.797283
0.799897
0.799997
0.8
0.8
0.8
0.8
0.8
0.8
0.8
0.8
0.8
0.8
0.8
0.8
0.8
0.8
0.8
0.8
0.616895
0.606558
0.603273
0.603285
0.607258
0.617026
0.636348
0.673276
0.736456
0.789998
0.459648
0.462824
0.467116
0.47248
0.478911
0.486466
0.4953
0.50576
0.518684
0.537054
0.758386
0.797167
0.799888
0.799996
0.8
0.8
0.8
0.8
0.8
0.8
0.8
0.8
0.8
0.8
0.8
0.8
0.8
0.8
0.8
0.8
0.622149
0.610842
0.60733
0.607206
0.611117
0.621036
0.640983
0.679379
0.743408
0.792044
0.467475
0.470563
0.474729
0.479938
0.486199
0.493583
0.502261
0.512596
0.525456
0.543907
0.758636
0.797133
0.799885
0.799996
0.8
0.8
0.8
0.8
0.8
0.8
0.8
0.8
0.8
0.8
0.8
0.8
0.8
0.8
0.8
0.8
0.627411
0.615204
0.61146
0.611215
0.615113
0.625274
0.645998
0.686092
0.750593
0.793817
0.474829
0.477838
0.481886
0.486948
0.493049
0.500273
0.508806
0.519032
0.531854
0.550443
0.759262
0.797158
0.799884
0.799996
0.8
0.8
0.8
0.8
0.8
0.8
0.8
0.8
0.8
0.8
0.8
0.8
0.8
0.8
0.8
0.8
0.632708
0.619662
0.615682
0.615326
0.619253
0.629737
0.651389
0.69339
0.757736
0.795284
0.48176
0.484696
0.488632
0.493555
0.499501
0.506572
0.514972
0.525107
0.537921
0.556714
0.760154
0.797227
0.799886
0.799996
0.8
0.8
0.8
0.8
0.8
0.8
0.8
0.8
0.8
0.8
0.8
0.8
0.8
0.8
0.8
0.8
0.638069
0.624242
0.620017
0.619557
0.623548
0.634432
0.657166
0.70122
0.764543
0.796451
0.488321
0.491188
0.495014
0.499798
0.505592
0.512514
0.520787
0.530847
0.543685
0.562758
0.76122
0.797323
0.799889
0.799996
0.8
0.8
0.8
0.8
0.8
0.8
0.8
0.8
0.8
0.8
0.8
0.8
0.8
0.8
0.8
0.8
0.643533
0.628974
0.624492
0.623933
0.628021
0.639375
0.663343
0.709471
0.770746
0.797346
0.494562
0.49736
0.501074
0.505716
0.511353
0.518122
0.52627
0.536266
0.54916
0.568594
0.762385
0.797435
0.799894
0.799996
0.8
0.8
0.8
0.8
0.8
0.8
0.8
0.8
0.8
0.8
0.8
0.8
0.8
0.8
0.8
0.8
0.649145
0.633902
0.629145
0.62849
0.632699
0.644586
0.669926
0.717978
0.776144
0.798012
0.500529
0.503256
0.506851
0.51134
0.516809
0.523414
0.531431
0.541367
0.554344
0.574226
0.763569
0.797548
0.799899
0.799997
0.8
0.8
0.8
0.8
0.8
0.8
0.8
0.8
0.8
0.8
0.8
0.8
0.8
0.8
0.8
0.8
0.654969
0.639087
0.634031
0.633274
0.637618
0.650084
0.676901
0.726487
0.780628
0.798493
0.506269
0.508917
0.512382
0.516702
0.521982
0.528402
0.536269
0.546138
0.559216
0.579637
0.764687
0.797652
0.799904
0.799997
0.8
0.8
0.8
0.8
0.8
0.8
0.8
0.8
0.8
0.8
0.8
0.8
0.8
0.8
0.8
0.8
0.66109
0.644613
0.639223
0.638347
0.642823
0.655889
0.684204
0.734637
0.784181
0.79883
0.511824
0.514386
0.517703
0.521831
0.526892
0.533092
0.540774
0.550551
0.563733
0.584777
0.765637
0.797732
0.799908
0.799997
0.8
0.8
0.8
0.8
0.8
0.8
0.8
0.8
0.8
0.8
0.8
0.8
0.8
0.8
0.8
0.8
0.667625
0.650602
0.644826
0.643795
0.648367
0.662004
0.691697
0.74203
0.786848
0.799056
0.517243
0.519704
0.522852
0.526756
0.531557
0.537487
0.544929
0.55456
0.567818
0.589553
0.766276
0.797773
0.799908
0.799997
0.8
0.8
0.8
0.8
0.8
0.8
0.8
0.8
0.8
0.8
0.8
0.8
0.8
0.8
0.8
0.8
0.674746
0.657231
0.650994
0.649732
0.654315
0.668414
0.699143
0.74832
0.788716
0.799197
0.522573
0.524917
0.52787
0.531513
0.536003
0.541594
0.54871
0.558102
0.571358
0.593798
0.76637
0.797747
0.799907
0.799997
0.8
0.8
0.8
0.8
0.8
0.8
0.8
0.8
0.8
0.8
0.8
0.8
0.8
0.8
0.8
0.8
0.682697
0.664765
0.65795
0.656318
0.660746
0.675072
0.706227
0.753281
0.789877
0.799266
0.527871
0.530079
0.532808
0.536148
0.540264
0.545431
0.552103
0.561103
0.574187
0.59723
0.765481
0.797597
0.799899
0.799997
0.8
0.8
0.8
0.8
0.8
0.8
0.8
0.8
0.8
0.8
0.8
0.8
0.8
0.8
0.8
0.8
0.691826
0.673601
0.666028
0.663786
0.66777
0.68191
0.712617
0.756825
0.790406
0.79927
0.533199
0.535252
0.537728
0.540721
0.5444
0.549042
0.555119
0.563501
0.576098
0.59938
0.762596
0.7972
0.79988
0.799996
0.8
0.8
0.8
0.8
0.8
0.8
0.8
0.8
0.8
0.8
0.8
0.8
0.8
0.8
0.8
0.8
0.70261
0.684341
0.675732
0.67248
0.675554
0.688875
0.718085
0.758999
0.790355
0.799206
0.538635
0.540513
0.542711
0.54532
0.548502
0.55252
0.557831
0.5653
0.576892
0.599504
0.754752
0.796196
0.799835
0.799996
0.8
0.8
0.8
0.8
0.8
0.8
0.8
0.8
0.8
0.8
0.8
0.8
0.8
0.8
0.8
0.8
0.715643
0.697871
0.687815
0.682921
0.684383
0.696008
0.722612
0.75997
0.789756
0.799061
0.544275
0.545962
0.547864
0.550066
0.552709
0.556025
0.560415
0.566653
0.576543
0.596657
0.732019
0.79354
0.799743
0.799992
0.8
0.8
0.8
0.8
0.8
0.8
0.8
0.8
0.8
0.8
0.8
0.8
0.8
0.8
0.8
0.8
0.731685
0.715382
0.703302
0.69585
0.694728
0.703554
0.726465
0.760059
0.788664
0.798817
0.550243
0.551728
0.55333
0.555121
0.557218
0.559805
0.563198
0.567986
0.575516
0.590536
0.595536
0.600984
0.606335
0.61163
0.616895
0.622148
0.627411
0.632707
0.638069
0.643532
0.649145
0.654969
0.661089
0.667625
0.674745
0.682696
0.691826
0.70261
0.715642
0.731684
0.74333
0.735371
0.722445
0.711899
0.707195
0.712035
0.730206
0.759814
0.787254
0.798461
0.55671
0.557989
0.5593
0.560701
0.562283
0.564191
0.566655
0.570089
0.575335
0.58467
0.589627
0.593959
0.59815
0.602335
0.606559
0.610843
0.615204
0.619662
0.624242
0.628974
0.633902
0.639087
0.644613
0.650602
0.657231
0.664765
0.6736
0.68434
0.69787
0.715381
0.735371
0.743558
0.738783
0.72905
0.721603
0.721957
0.734578
0.759489
0.785617
0.797936
0.563921
0.564999
0.566039
0.567089
0.568222
0.569549
0.571241
0.573577
0.577044
0.582585
0.587158
0.591301
0.595298
0.599271
0.603273
0.60733
0.611461
0.615682
0.620017
0.624492
0.629145
0.634031
0.639222
0.644826
0.650994
0.65795
0.666027
0.675732
0.687814
0.703302
0.722445
0.738782
0.745431
0.742488
0.735953
0.733105
0.740167
0.759643
0.783674
0.797194
0.572263
0.573151
0.573951
0.574702
0.575466
0.576333
0.577435
0.57897
0.58123
0.584624
0.588261
0.591944
0.595665
0.599441
0.603285
0.607206
0.611216
0.615326
0.619557
0.623933
0.62849
0.633274
0.638347
0.643795
0.649732
0.656318
0.663786
0.67248
0.68292
0.695849
0.711898
0.729049
0.742488
0.748208
0.746875
0.744012
0.746919
0.760771
0.781729
0.796202
0.582416
0.583132
0.583725
0.584234
0.584712
0.585241
0.585931
0.586936
0.588451
0.590695
0.593475
0.596605
0.599979
0.60354
0.607258
0.611117
0.615113
0.619253
0.623549
0.628021
0.632699
0.637618
0.642823
0.648367
0.654315
0.660746
0.667769
0.675554
0.684383
0.694728
0.707195
0.721602
0.735952
0.746875
0.751905
0.75236
0.753834
0.762962
0.780124
0.794962
0.59572
0.596291
0.596719
0.597042
0.597316
0.59762
0.598056
0.598759
0.599882
0.601576
0.603845
0.606608
0.609771
0.613261
0.617027
0.621036
0.625274
0.629737
0.634432
0.639375
0.644586
0.650084
0.655889
0.662004
0.668414
0.675072
0.68191
0.688875
0.696008
0.703554
0.712035
0.721957
0.733104
0.744012
0.75236
0.756804
0.759418
0.765716
0.779054
0.793514
0.615103
0.615577
0.615895
0.6161
0.616255
0.616446
0.616782
0.617394
0.618424
0.620003
0.622193
0.624977
0.628303
0.63211
0.636348
0.640983
0.645998
0.651389
0.657166
0.663343
0.669926
0.676901
0.684204
0.691697
0.699143
0.706226
0.712617
0.718085
0.722612
0.726465
0.730206
0.734578
0.740167
0.746919
0.753834
0.759418
0.76337
0.768453
0.778548
0.791925
0.6472
0.647677
0.64798
0.648166
0.648316
0.648535
0.648951
0.649714
0.650976
0.652876
0.655502
0.658882
0.662995
0.667806
0.673277
0.679379
0.686092
0.693389
0.70122
0.709471
0.717978
0.726487
0.734636
0.74203
0.74832
0.75328
0.756825
0.758999
0.75997
0.760059
0.759814
0.759489
0.759643
0.760771
0.762962
0.765716
0.768453
0.771979
0.779006
0.79043
0.703628
0.704222
0.704614
0.704887
0.705145
0.705522
0.706173
0.707271
0.708987
0.711466
0.714805
0.719032
0.724114
0.729965
0.736456
0.743408
0.750593
0.757736
0.764543
0.770746
0.776144
0.780628
0.784181
0.786848
0.788716
0.789877
0.790406
0.790355
0.789756
0.788664
0.787254
0.785618
0.783674
0.781729
0.780124
0.779054
0.778548
0.779006
0.782093
0.789921
0.774331
0.77468
0.774914
0.775086
0.775265
0.775532
0.775979
0.776695
0.777756
0.7792
0.781013
0.783123
0.785416
0.787752
0.789998
0.792044
0.793817
0.795284
0.796451
0.797346
0.798012
0.798493
0.79883
0.799056
0.799197
0.799266
0.79927
0.799206
0.799061
0.798817
0.798461
0.797936
0.797194
0.796202
0.794962
0.793514
0.791925
0.79043
0.789921
0.792513
0.21802
0.229801
0.24746
0.267957
0.288803
0.308762
0.327367
0.344501
0.360193
0.374533
0.387632
0.399614
0.410606
0.42073
0.430085
0.438758
0.446828
0.45437
0.461452
0.468128
0.474454
0.480479
0.486252
0.491819
0.497227
0.502525
0.507768
0.513017
0.518342
0.523833
0.5296
0.535787
0.542592
0.550298
0.559337
0.570415
0.584869
0.606207
0.64685
0.732368
0.229798
0.242237
0.259284
0.278383
0.297731
0.316393
0.333956
0.350277
0.365341
0.379195
0.391919
0.403612
0.414382
0.42433
0.433541
0.442092
0.450056
0.457505
0.464501
0.471095
0.477338
0.483279
0.488961
0.494427
0.499721
0.504889
0.509982
0.51506
0.520197
0.525483
0.531036
0.537007
0.543602
0.551111
0.559972
0.570896
0.585224
0.606463
0.647058
0.732599
0.247458
0.259284
0.274731
0.291829
0.309272
0.326317
0.34258
0.35788
0.372153
0.385396
0.397647
0.408975
0.419459
0.429173
0.438185
0.446563
0.454376
0.461688
0.468552
0.475019
0.481133
0.486938
0.492473
0.497775
0.502883
0.50784
0.512693
0.517505
0.522351
0.527333
0.532578
0.538253
0.544574
0.551843
0.560502
0.571265
0.58547
0.606617
0.647155
0.732708
0.267956
0.278383
0.291829
0.306803
0.322298
0.337684
0.352597
0.366826
0.380262
0.392857
0.404607
0.415545
0.425714
0.435162
0.443943
0.452116
0.459746
0.466888
0.473588
0.479894
0.485844
0.491476
0.496821
0.50191
0.506775
0.511452
0.515986
0.520437
0.52489
0.529458
0.53429
0.539576
0.545552
0.55253
0.560957
0.571549
0.585637
0.606704
0.647192
0.732761
0.288803
0.29773
0.309271
0.322297
0.336003
0.349852
0.363499
0.376717
0.389364
0.401353
0.412641
0.423212
0.433071
0.442246
0.450782
0.458735
0.466164
0.473115
0.479634
0.485759
0.491526
0.496963
0.502093
0.506939
0.511521
0.515865
0.520009
0.52401
0.527959
0.531987
0.536278
0.541059
0.546599
0.553224
0.561386
0.571794
0.58577
0.606772
0.647234
0.732844
0.308762
0.316392
0.326317
0.337684
0.349852
0.362367
0.374907
0.38725
0.399232
0.410736
0.421662
0.431932
0.441517
0.450435
0.458731
0.466466
0.473687
0.480442
0.486773
0.492716
0.498297
0.503537
0.508449
0.513044
0.517326
0.521307
0.525006
0.528472
0.531794
0.535128
0.538707
0.54283
0.547813
0.554004
0.561854
0.572062
0.585928
0.606884
0.647364
0.733062
0.327367
0.333955
0.342579
0.352597
0.363499
0.374907
0.386543
0.3982
0.409717
0.420937
0.431674
0.441759
0.451138
0.459837
0.467918
0.475442
0.482462
0.48903
0.495184
0.500957
0.506369
0.511433
0.516151
0.520518
0.524519
0.528139
0.53137
0.534229
0.536792
0.53923
0.541851
0.54509
0.549343
0.554984
0.562458
0.572437
0.586191
0.60712
0.647678
0.733534
0.344501
0.350276
0.35788
0.366826
0.376717
0.38725
0.3982
0.409408
0.420732
0.431981
0.442847
0.452939
0.462213
0.47075
0.478644
0.485976
0.492814
0.499214
0.505217
0.510851
0.516134
0.52107
0.525651
0.529856
0.533646
0.53697
0.53977
0.541999
0.543671
0.544941
0.546205
0.548186
0.551426
0.556333
0.563325
0.573024
0.58665
0.607566
0.648282
0.734384
0.360193
0.36534
0.372153
0.380263
0.389364
0.399232
0.409717
0.420732
0.432214
0.444048
0.455787
0.466199
0.475493
0.483921
0.491656
0.498821
0.505505
0.511771
0.517665
0.523216
0.528439
0.533335
0.537888
0.542062
0.545797
0.548999
0.551536
0.553242
0.553962
0.55369
0.552845
0.552794
0.554452
0.558286
0.564614
0.573945
0.587406
0.608312
0.649277
0.735729
0.374533
0.379195
0.385396
0.392857
0.401353
0.410736
0.420937
0.431981
0.444048
0.457609
0.473181
0.484287
0.493665
0.501996
0.509587
0.516612
0.523185
0.529381
0.535253
0.540834
0.546143
0.551183
0.555939
0.560371
0.564405
0.567918
0.5707
0.572406
0.572481
0.570187
0.565246
0.560564
0.559097
0.561141
0.566489
0.575308
0.588541
0.60943
0.65075
0.737658
0.387632
0.391919
0.397648
0.404607
0.412641
0.421662
0.431675
0.442847
0.455786
0.473181
0.748373
0.757126
0.751561
0.747977
0.745824
0.744578
0.743955
0.743777
0.743915
0.744264
0.744734
0.745228
0.745641
0.745837
0.745627
0.744701
0.742473
0.737582
0.726037
0.695651
0.569837
0.56479
0.562943
0.564186
0.568789
0.577108
0.590085
0.610954
0.652751
0.740221
0.399613
0.403611
0.408975
0.415545
0.423212
0.431932
0.44176
0.45294
0.466199
0.484287
0.757126
0.795291
0.796562
0.795915
0.795407
0.795058
0.794831
0.7947
0.79464
0.794631
0.794651
0.794682
0.7947
0.794677
0.794574
0.794326
0.793804
0.792713
0.790217
0.783971
0.575187
0.568526
0.56642
0.567251
0.571354
0.579264
0.592005
0.612874
0.655294
0.743412
0.410606
0.414382
0.419459
0.425715
0.433071
0.441517
0.451138
0.462214
0.475493
0.493665
0.751561
0.796562
0.799748
0.799827
0.799794
0.799767
0.799747
0.799734
0.799726
0.799723
0.799721
0.799721
0.799721
0.799718
0.79971
0.799692
0.799658
0.799588
0.799441
0.799145
0.58026
0.572091
0.569741
0.570317
0.574085
0.581688
0.59424
0.615146
0.65836
0.747179
0.42073
0.42433
0.429173
0.435162
0.442246
0.450435
0.459837
0.47075
0.483921
0.501996
0.747977
0.795915
0.799827
0.799989
0.799993
0.799992
0.79999
0.79999
0.799989
0.799989
0.79999
0.799989
0.799989
0.799989
0.799989
0.799987
0.799986
0.799984
0.799979
0.799971
0.585113
0.575577
0.57299
0.573386
0.576925
0.584307
0.59672
0.617712
0.661916
0.751428
0.430085
0.433541
0.438185
0.443943
0.450782
0.458732
0.467918
0.478644
0.491656
0.509587
0.745823
0.795407
0.799794
0.799993
0.8
0.8
0.8
0.8
0.8
0.8
0.8
0.8
0.8
0.8
0.8
0.8
0.8
0.8
0.8
0.799999
0.5898
0.579014
0.576205
0.576461
0.579838
0.587065
0.599385
0.620512
0.665929
0.756033
0.438759
0.442092
0.446564
0.452117
0.458735
0.466466
0.475442
0.485976
0.498821
0.516612
0.744578
0.795058
0.799767
0.799992
0.8
0.8
0.8
0.8
0.8
0.8
0.8
0.8
0.8
0.8
0.8
0.8
0.8
0.8
0.8
0.8
0.594349
0.58242
0.579402
0.579544
0.582804
0.589922
0.602179
0.623493
0.670371
0.760842
0.446829
0.450057
0.454377
0.459747
0.466164
0.473687
0.482463
0.492814
0.505505
0.523185
0.743955
0.794831
0.799747
0.79999
0.8
0.8
0.8
0.8
0.8
0.8
0.8
0.8
0.8
0.8
0.8
0.8
0.8
0.8
0.8
0.8
0.598784
0.585806
0.582592
0.582637
0.585808
0.592846
0.605058
0.626613
0.675232
0.765688
0.454371
0.457506
0.461689
0.466888
0.473115
0.480442
0.48903
0.499215
0.511772
0.529381
0.743777
0.7947
0.799734
0.79999
0.8
0.8
0.8
0.8
0.8
0.8
0.8
0.8
0.8
0.8
0.8
0.8
0.8
0.8
0.8
0.8
0.603126
0.589186
0.585785
0.585745
0.588844
0.595814
0.607983
0.62984
0.680512
0.770401
0.461452
0.464501
0.468553
0.473589
0.479634
0.486774
0.495185
0.505217
0.517666
0.535252
0.743915
0.79464
0.799726
0.799989
0.8
0.8
0.8
0.8
0.8
0.8
0.8
0.8
0.8
0.8
0.8
0.8
0.8
0.8
0.8
0.8
0.607396
0.592577
0.588995
0.588873
0.591905
0.598806
0.610917
0.633155
0.686221
0.774821
0.468128
0.471095
0.47502
0.479894
0.48576
0.492716
0.500957
0.510852
0.523217
0.540834
0.744265
0.794631
0.799723
0.799989
0.8
0.8
0.8
0.8
0.8
0.8
0.8
0.8
0.8
0.8
0.8
0.8
0.8
0.8
0.8
0.8
0.611613
0.595996
0.592233
0.592029
0.59499
0.601803
0.613826
0.636554
0.692354
0.778817
0.474454
0.477339
0.481134
0.485845
0.491527
0.498297
0.50637
0.516134
0.52844
0.546143
0.744734
0.794651
0.799721
0.79999
0.8
0.8
0.8
0.8
0.8
0.8
0.8
0.8
0.8
0.8
0.8
0.8
0.8
0.8
0.8
0.8
0.615796
0.599469
0.595516
0.595222
0.598094
0.604784
0.616673
0.640009
0.698868
0.782297
0.480479
0.48328
0.486939
0.491476
0.496963
0.503537
0.511434
0.52107
0.533335
0.551184
0.745228
0.794682
0.799721
0.799989
0.8
0.8
0.8
0.8
0.8
0.8
0.8
0.8
0.8
0.8
0.8
0.8
0.8
0.8
0.8
0.8
0.619969
0.603024
0.598866
0.598462
0.601213
0.607726
0.61942
0.643469
0.705638
0.785208
0.486252
0.488961
0.492473
0.496821
0.502094
0.50845
0.516152
0.525652
0.537888
0.555939
0.745641
0.7947
0.799721
0.799989
0.8
0.8
0.8
0.8
0.8
0.8
0.8
0.8
0.8
0.8
0.8
0.8
0.8
0.8
0.8
0.8
0.624152
0.606696
0.602306
0.601761
0.604341
0.610602
0.622027
0.646885
0.712418
0.787531
0.491819
0.494427
0.497775
0.50191
0.506939
0.513044
0.520518
0.529856
0.542063
0.560371
0.745837
0.794677
0.799718
0.799989
0.8
0.8
0.8
0.8
0.8
0.8
0.8
0.8
0.8
0.8
0.8
0.8
0.8
0.8
0.8
0.8
0.628371
0.61053
0.605866
0.60513
0.607468
0.61338
0.624457
0.650188
0.718823
0.78927
0.497227
0.499721
0.502883
0.506775
0.511521
0.517327
0.52452
0.533647
0.545798
0.564405
0.745627
0.794574
0.79971
0.799989
0.8
0.8
0.8
0.8
0.8
0.8
0.8
0.8
0.8
0.8
0.8
0.8
0.8
0.8
0.8
0.8
0.632646
0.61458
0.609584
0.608582
0.610585
0.616029
0.626675
0.653277
0.724365
0.790437
0.502526
0.504889
0.50784
0.511452
0.515866
0.521307
0.52814
0.536971
0.548999
0.567917
0.744701
0.794326
0.799692
0.799987
0.8
0.8
0.8
0.8
0.8
0.8
0.8
0.8
0.8
0.8
0.8
0.8
0.8
0.8
0.8
0.8
0.636994
0.618919
0.61351
0.612138
0.613686
0.618523
0.628655
0.656008
0.728534
0.79104
0.507769
0.509982
0.512693
0.515986
0.520009
0.525007
0.531371
0.53977
0.551536
0.5707
0.742473
0.793804
0.799658
0.799986
0.8
0.8
0.8
0.8
0.8
0.8
0.8
0.8
0.8
0.8
0.8
0.8
0.8
0.8
0.8
0.8
0.641425
0.623645
0.617722
0.615835
0.616774
0.620851
0.630375
0.658191
0.730899
0.791058
0.513017
0.515061
0.517505
0.520438
0.524011
0.528472
0.53423
0.541999
0.553242
0.572406
0.737582
0.792713
0.799588
0.799984
0.8
0.8
0.8
0.8
0.8
0.8
0.8
0.8
0.8
0.8
0.8
0.8
0.8
0.8
0.8
0.8
0.645945
0.628908
0.622349
0.619745
0.619886
0.623034
0.63182
0.659613
0.73118
0.790429
0.518343
0.520197
0.522352
0.524891
0.527959
0.531794
0.536792
0.543672
0.553962
0.572481
0.726037
0.790217
0.799441
0.799979
0.8
0.8
0.8
0.8
0.8
0.8
0.8
0.8
0.8
0.8
0.8
0.8
0.8
0.8
0.8
0.8
0.650619
0.635009
0.627655
0.624042
0.623132
0.625161
0.633001
0.660086
0.729271
0.789024
0.523834
0.525484
0.527333
0.529459
0.531988
0.535128
0.539231
0.544942
0.55369
0.570187
0.695651
0.783971
0.799145
0.799971
0.799999
0.8
0.8
0.8
0.8
0.8
0.8
0.8
0.8
0.8
0.8
0.8
0.8
0.8
0.8
0.8
0.655894
0.642694
0.634273
0.629166
0.626811
0.627447
0.634016
0.659486
0.725218
0.786646
0.529601
0.531037
0.532579
0.534291
0.536278
0.538707
0.541851
0.546206
0.552846
0.565246
0.569837
0.575187
0.58026
0.585113
0.5898
0.594349
0.598784
0.603127
0.607396
0.611613
0.615796
0.619969
0.624153
0.628371
0.632646
0.636994
0.641425
0.645945
0.650619
0.655894
0.659274
0.652019
0.643061
0.635979
0.631583
0.630367
0.635178
0.657945
0.719048
0.78294
0.535788
0.537008
0.538253
0.539577
0.54106
0.54283
0.54509
0.548187
0.552795
0.560564
0.56479
0.568526
0.572092
0.575577
0.579015
0.58242
0.585807
0.589187
0.592577
0.595997
0.59947
0.603024
0.606696
0.61053
0.61458
0.618919
0.623644
0.628908
0.635009
0.642694
0.652019
0.654635
0.650487
0.643827
0.637888
0.634586
0.637101
0.656265
0.711405
0.777624
0.542592
0.543603
0.544575
0.545553
0.546599
0.547813
0.549343
0.551426
0.554453
0.559098
0.562943
0.56642
0.569741
0.57299
0.576205
0.579402
0.582592
0.585786
0.588995
0.592233
0.595517
0.598866
0.602306
0.605866
0.609584
0.61351
0.617722
0.622349
0.627654
0.634273
0.64306
0.650487
0.652802
0.650059
0.6449
0.640383
0.640526
0.65542
0.703476
0.770636
0.550298
0.551111
0.551844
0.55253
0.553224
0.554004
0.554985
0.556333
0.558287
0.561142
0.564186
0.567251
0.570317
0.573386
0.576462
0.579545
0.582638
0.585745
0.588873
0.592029
0.595222
0.598463
0.601761
0.60513
0.608582
0.612139
0.615835
0.619745
0.624042
0.629166
0.635979
0.643827
0.650059
0.65235
0.650638
0.647066
0.645849
0.656515
0.696669
0.762393
0.559337
0.559972
0.560502
0.560958
0.561386
0.561854
0.562458
0.563325
0.564615
0.56649
0.56879
0.571355
0.574086
0.576925
0.579839
0.582804
0.585809
0.588844
0.591906
0.59499
0.598094
0.601213
0.604341
0.607468
0.610585
0.613686
0.616774
0.619886
0.623133
0.626811
0.631582
0.637888
0.644899
0.650638
0.653375
0.65311
0.652681
0.660349
0.692569
0.753987
0.570415
0.570896
0.571265
0.571549
0.571795
0.572062
0.572437
0.573024
0.573945
0.575309
0.577108
0.579264
0.581689
0.584308
0.587066
0.589922
0.592846
0.595814
0.598806
0.601803
0.604785
0.607726
0.610602
0.61338
0.616029
0.618523
0.620851
0.623035
0.625161
0.627447
0.630367
0.634586
0.640383
0.647066
0.65311
0.657186
0.659922
0.666993
0.692511
0.747097
0.584869
0.585224
0.58547
0.585638
0.58577
0.585929
0.586191
0.586651
0.587406
0.588542
0.590085
0.592006
0.59424
0.596721
0.599385
0.602179
0.605058
0.607983
0.610917
0.613826
0.616674
0.619421
0.622028
0.624457
0.626675
0.628655
0.630375
0.63182
0.633001
0.634016
0.635178
0.637101
0.640526
0.645849
0.652681
0.659922
0.666808
0.675827
0.697083
0.743508
0.606207
0.606463
0.606617
0.606704
0.606772
0.606885
0.60712
0.607567
0.608313
0.60943
0.610955
0.612875
0.615147
0.617712
0.620512
0.623494
0.626614
0.62984
0.633155
0.636554
0.640009
0.64347
0.646885
0.650188
0.653277
0.656008
0.658191
0.659613
0.660086
0.659486
0.657945
0.656265
0.65542
0.656515
0.660349
0.666992
0.675827
0.687159
0.706312
0.744496
0.646851
0.647058
0.647155
0.647192
0.647234
0.647364
0.647678
0.648282
0.649278
0.65075
0.652751
0.655294
0.65836
0.661917
0.665929
0.670371
0.675232
0.680512
0.686221
0.692354
0.698868
0.705638
0.712418
0.718823
0.724365
0.728534
0.730899
0.73118
0.729271
0.725218
0.719048
0.711405
0.703476
0.69667
0.692569
0.692511
0.697083
0.706312
0.722017
0.751167
0.732368
0.7326
0.732708
0.732761
0.732844
0.733063
0.733534
0.734385
0.735729
0.737658
0.740221
0.743412
0.747179
0.751428
0.756033
0.760842
0.765688
0.770401
0.774821
0.778818
0.782297
0.785208
0.787531
0.78927
0.790437
0.79104
0.791058
0.790429
0.789024
0.786646
0.78294
0.777624
0.770636
0.762393
0.753987
0.747098
0.743508
0.744496
0.751167
0.766902
0.201385
0.205891
0.218846
0.23939
0.262555
0.285228
0.306277
0.325438
0.342761
0.358393
0.372511
0.385289
0.396892
0.407478
0.417192
0.426151
0.434451
0.442176
0.449402
0.456196
0.462615
0.468713
0.474539
0.480142
0.48557
0.490871
0.4961
0.501314
0.506584
0.511991
0.517636
0.523649
0.530198
0.537519
0.545965
0.55614
0.569346
0.589219
0.62724
0.712216
0.205889
0.214239
0.230106
0.25071
0.27258
0.293802
0.313614
0.331798
0.34837
0.363427
0.377101
0.389534
0.400868
0.411246
0.420792
0.429611
0.43779
0.445407
0.452535
0.459235
0.46556
0.471561
0.477284
0.482773
0.488074
0.493231
0.498297
0.50333
0.5084
0.513593
0.519017
0.524808
0.531143
0.538265
0.546531
0.556547
0.569616
0.589378
0.627338
0.712343
0.218842
0.230105
0.246613
0.265825
0.285667
0.304978
0.323212
0.340159
0.355777
0.370101
0.383208
0.395198
0.406185
0.416286
0.425603
0.434225
0.44223
0.44969
0.45667
0.463225
0.469405
0.475253
0.480812
0.486122
0.491221
0.496153
0.500966
0.505721
0.510492
0.515374
0.520487
0.52598
0.532044
0.538929
0.546995
0.556848
0.569788
0.589447
0.627345
0.71236
0.239388
0.25071
0.265825
0.282843
0.300413
0.317716
0.334302
0.349946
0.36455
0.378089
0.390586
0.402096
0.412702
0.422491
0.431542
0.439929
0.447722
0.454989
0.461784
0.468158
0.474153
0.479808
0.485158
0.490236
0.495074
0.499711
0.504191
0.508575
0.512945
0.51741
0.52211
0.527219
0.532943
0.539545
0.547387
0.557072
0.569887
0.589455
0.627302
0.712332
0.262555
0.272581
0.285667
0.300413
0.315822
0.331246
0.346284
0.360694
0.374335
0.387129
0.399045
0.410098
0.420331
0.4298
0.438568
0.446699
0.454261
0.461311
0.467898
0.474067
0.479854
0.485291
0.490404
0.495216
0.499751
0.504037
0.508112
0.512036
0.515897
0.519823
0.523987
0.528601
0.533901
0.540164
0.547752
0.557259
0.569956
0.589449
0.627268
0.71234
0.285229
0.293803
0.304978
0.317715
0.331246
0.345035
0.358718
0.372051
0.384864
0.397033
0.408475
0.419148
0.429049
0.438214
0.4467
0.454572
0.461894
0.468717
0.475088
0.481045
0.486618
0.49183
0.496698
0.501233
0.505446
0.509347
0.512963
0.516341
0.519574
0.522811
0.526276
0.530249
0.535012
0.540859
0.548152
0.557466
0.570049
0.589486
0.627319
0.712483
0.306278
0.313613
0.323211
0.334301
0.346284
0.358718
0.371287
0.383758
0.395951
0.40771
0.418874
0.429294
0.438933
0.447829
0.456051
0.463672
0.470756
0.477355
0.483514
0.489266
0.494637
0.49964
0.504281
0.508558
0.512461
0.51598
0.51911
0.521874
0.524349
0.526705
0.529236
0.532353
0.536416
0.54174
0.548676
0.55777
0.570236
0.589639
0.62754
0.712874
0.325438
0.331798
0.340159
0.349945
0.360694
0.372051
0.383757
0.395622
0.40749
0.419184
0.430407
0.440774
0.450249
0.458923
0.466907
0.474291
0.481148
0.487536
0.493501
0.499073
0.504273
0.509107
0.513571
0.517647
0.521304
0.524496
0.527173
0.529299
0.530894
0.532111
0.533332
0.53524
0.538334
0.542962
0.549442
0.558267
0.570601
0.589988
0.628027
0.71363
0.34276
0.348368
0.355776
0.364549
0.374334
0.384863
0.395951
0.40749
0.419422
0.431638
0.44368
0.4543
0.463723
0.472222
0.479988
0.487148
0.493795
0.499996
0.505798
0.511233
0.516318
0.521057
0.525437
0.529428
0.532976
0.535998
0.538376
0.539962
0.540619
0.540351
0.539562
0.539539
0.541133
0.544745
0.550596
0.559066
0.571232
0.590614
0.628869
0.714865
0.358393