/*--------------------------------*- C++ -*----------------------------------*\
| =========                 |                                                 |
| \\      /  F ield         | OpenFOAM: The Open Source CFD Toolbox           |
|  \\    /   O peration     | Version:  2.1.0                                 |
|   \\  /    A nd           | Web:      www.OpenFOAM.org                      |
|    \\/     M anipulation  |                                                 |
\*---------------------------------------------------------------------------*/
FoamFile
{
    version     2.0;
    format      ascii;
    class       volScalarField;
    location    "36135";
    object      sw;
}
// * * * * * * * * * * * * * * * * * * * * * * * * * * * * * * * * * * * * * //

dimensions      [0 0 0 0 0 0 0];

internalField   nonuniform List<scalar> 
8000
(
0.734226
0.721964
0.706489
0.689782
0.673002
0.656737
0.641265
0.626703
0.613078
0.600373
0.588535
0.577502
0.567222
0.557642
0.548705
0.540352
0.532526
0.525172
0.51824
0.511679
0.505438
0.49947
0.493731
0.488176
0.482757
0.477427
0.472129
0.466801
0.461365
0.455725
0.449757
0.44329
0.436079
0.427737
0.417584
0.40428
0.384897
0.3528
0.296372
0.225669
0.721965
0.710745
0.696615
0.681235
0.665621
0.65032
0.635619
0.621665
0.608514
0.596172
0.584611
0.573794
0.563687
0.554248
0.545429
0.537176
0.529437
0.522162
0.515304
0.508812
0.50264
0.496745
0.491083
0.485615
0.480297
0.475083
0.469921
0.464748
0.459487
0.454039
0.448272
0.442011
0.435002
0.426849
0.416868
0.40371
0.384423
0.352324
0.295779
0.22532
0.70649
0.696615
0.684111
0.67033
0.656117
0.641985
0.628232
0.615026
0.602458
0.590562
0.579342
0.568796
0.558909
0.549656
0.540996
0.532884
0.525271
0.518115
0.511369
0.504987
0.498927
0.49315
0.487619
0.482298
0.477149
0.47213
0.467193
0.462273
0.45729
0.452136
0.44667
0.440701
0.433961
0.42605
0.416275
0.403282
0.384106
0.352021
0.295386
0.225086
0.689783
0.681235
0.67033
0.658113
0.645306
0.632366
0.619589
0.607161
0.595195
0.583757
0.572892
0.562633
0.552988
0.543943
0.535468
0.527521
0.520062
0.513052
0.506446
0.500202
0.494284
0.48866
0.483298
0.478169
0.473244
0.468487
0.463853
0.459279
0.45468
0.449934
0.444879
0.4393
0.432911
0.425299
0.415767
0.402958
0.3839
0.351834
0.295113
0.224914
0.673002
0.665621
0.656117
0.645306
0.633779
0.621942
0.610075
0.598368
0.586949
0.575924
0.565382
0.55539
0.545978
0.537143
0.528858
0.521089
0.513802
0.506952
0.500499
0.494408
0.488647
0.483191
0.478018
0.473108
0.468443
0.463997
0.459736
0.4556
0.451498
0.447291
0.442783
0.437717
0.431778
0.424534
0.415288
0.402684
0.383745
0.351684
0.294855
0.224735
0.656738
0.650321
0.641985
0.632366
0.621942
0.611063
0.599978
0.588871
0.577889
0.567177
0.556874
0.547088
0.537871
0.529224
0.521123
0.513534
0.506417
0.499728
0.493428
0.487486
0.481878
0.476586
0.471598
0.466909
0.462513
0.458406
0.454569
0.450958
0.44748
0.443975
0.440195
0.43581
0.430451
0.423667
0.414759
0.402381
0.383554
0.351466
0.294478
0.224468
0.641265
0.63562
0.628232
0.619589
0.610075
0.599979
0.589511
0.578841
0.568133
0.557567
0.547344
0.537651
0.528558
0.52006
0.512123
0.5047
0.497739
0.491194
0.485029
0.479214
0.47373
0.46857
0.463732
0.459226
0.455072
0.45129
0.447897
0.444881
0.442169
0.439585
0.436802
0.433345
0.42876
0.422565
0.414069
0.401944
0.383218
0.351049
0.293827
0.224021
0.626703
0.621665
0.615026
0.607161
0.598367
0.588871
0.578841
0.568422
0.557762
0.547054
0.536606
0.52681
0.517737
0.509334
0.501529
0.49424
0.487404
0.480967
0.474893
0.469153
0.463734
0.458633
0.453862
0.449449
0.44544
0.441899
0.438898
0.436499
0.434701
0.433347
0.432014
0.429911
0.426424
0.42103
0.413065
0.401242
0.382606
0.350287
0.292729
0.223305
0.613078
0.608514
0.602459
0.595195
0.58695
0.577889
0.568133
0.557762
0.546831
0.535444
0.524029
0.51381
0.504626
0.496254
0.488524
0.481316
0.474544
0.468146
0.462079
0.456315
0.45084
0.445656
0.440784
0.436268
0.432182
0.428642
0.425813
0.423902
0.423108
0.423457
0.424484
0.424665
0.422956
0.418771
0.411549
0.400118
0.381576
0.349024
0.291014
0.222244
0.600373
0.596173
0.590562
0.583757
0.575924
0.567177
0.557567
0.547054
0.535444
0.522241
0.50688
0.495807
0.486386
0.47795
0.470195
0.462947
0.456093
0.449558
0.443286
0.437243
0.431406
0.425774
0.420363
0.415223
0.410447
0.406202
0.40277
0.40062
0.400496
0.403343
0.409464
0.41533
0.417415
0.415377
0.409305
0.398425
0.379997
0.347124
0.288534
0.2208
0.588535
0.584611
0.579342
0.572892
0.565382
0.556874
0.547344
0.536606
0.524029
0.50688
0.242749
0.234083
0.238031
0.240283
0.241333
0.241614
0.241364
0.240738
0.239846
0.23878
0.237615
0.236431
0.235312
0.234363
0.233724
0.23363
0.234519
0.237404
0.245248
0.26798
0.404464
0.410373
0.412842
0.41174
0.406525
0.396155
0.377808
0.344498
0.285195
0.218987
0.577503
0.573794
0.568795
0.562633
0.55539
0.547088
0.537651
0.52681
0.51381
0.495807
0.234083
0.203059
0.202154
0.20249
0.202717
0.202833
0.202867
0.202842
0.202773
0.202677
0.202566
0.202452
0.202348
0.202268
0.202227
0.202253
0.202403
0.2028
0.203804
0.20646
0.399016
0.406041
0.408699
0.408057
0.403395
0.393392
0.375023
0.341119
0.280968
0.216877
0.567223
0.563687
0.558909
0.552988
0.545978
0.537871
0.528558
0.517737
0.504625
0.486385
0.238032
0.202154
0.200136
0.20009
0.200103
0.200112
0.200115
0.200116
0.200114
0.200111
0.200107
0.200101
0.200096
0.200092
0.200092
0.200093
0.200101
0.20012
0.200165
0.200257
0.393665
0.40185
0.404702
0.404335
0.400021
0.390229
0.371697
0.337005
0.275886
0.214584
0.557642
0.554248
0.549656
0.543943
0.537143
0.529224
0.52006
0.509334
0.496254
0.47795
0.240283
0.20249
0.20009
0.200004
0.200003
0.200004
0.200004
0.200004
0.200004
0.200004
0.200004
0.200003
0.200003
0.200003
0.200003
0.200003
0.200003
0.200004
0.200004
0.200008
0.38837
0.397665
0.400729
0.400559
0.39646
0.386739
0.36789
0.332194
0.270035
0.212248
0.548705
0.545429
0.540996
0.535467
0.528858
0.521123
0.512123
0.501529
0.488524
0.470195
0.241333
0.202717
0.200103
0.200003
0.2
0.2
0.2
0.2
0.2
0.2
0.2
0.2
0.2
0.2
0.2
0.2
0.2
0.2
0.2
0.2
0.383105
0.393442
0.396727
0.396715
0.392742
0.382974
0.363652
0.326724
0.263544
0.210002
0.540352
0.537176
0.532884
0.52752
0.521089
0.513534
0.5047
0.49424
0.481316
0.462946
0.241614
0.202833
0.200112
0.200004
0.2
0.2
0.2
0.2
0.2
0.2
0.2
0.2
0.2
0.2
0.2
0.2
0.2
0.2
0.2
0.2
0.377851
0.389158
0.39267
0.392794
0.388883
0.378964
0.359017
0.320621
0.256592
0.207956
0.532525
0.529437
0.525271
0.520062
0.513801
0.506417
0.497739
0.487404
0.474544
0.456093
0.241364
0.202867
0.200115
0.200004
0.2
0.2
0.2
0.2
0.2
0.2
0.2
0.2
0.2
0.2
0.2
0.2
0.2
0.2
0.2
0.2
0.372589
0.384796
0.38854
0.388785
0.384887
0.374726
0.354002
0.313908
0.249407
0.206183
0.525171
0.522162
0.518114
0.513052
0.506951
0.499727
0.491194
0.480968
0.468146
0.449557
0.240738
0.202842
0.200116
0.200004
0.2
0.2
0.2
0.2
0.2
0.2
0.2
0.2
0.2
0.2
0.2
0.2
0.2
0.2
0.2
0.2
0.367292
0.380338
0.384318
0.384674
0.380747
0.370263
0.348611
0.30661
0.242264
0.204716
0.51824
0.515304
0.511368
0.506445
0.500499
0.493428
0.485028
0.474893
0.462079
0.443286
0.239846
0.202773
0.200114
0.200004
0.2
0.2
0.2
0.2
0.2
0.2
0.2
0.2
0.2
0.2
0.2
0.2
0.2
0.2
0.2
0.2
0.361931
0.375758
0.379983
0.380443
0.376452
0.365568
0.342834
0.29878
0.235457
0.203549
0.511679
0.508812
0.504986
0.500202
0.494408
0.487486
0.479213
0.469153
0.456315
0.437242
0.23878
0.202677
0.200111
0.200004
0.2
0.2
0.2
0.2
0.2
0.2
0.2
0.2
0.2
0.2
0.2
0.2
0.2
0.2
0.2
0.2
0.356467
0.371026
0.375508
0.376067
0.371979
0.360625
0.336657
0.290529
0.229254
0.202654
0.505438
0.50264
0.498926
0.494284
0.488647
0.481878
0.47373
0.463734
0.45084
0.431406
0.237615
0.202565
0.200106
0.200004
0.2
0.2
0.2
0.2
0.2
0.2
0.2
0.2
0.2
0.2
0.2
0.2
0.2
0.2
0.2
0.2
0.350855
0.366098
0.370855
0.37151
0.367301
0.355414
0.330074
0.282022
0.223856
0.201988
0.499471
0.496744
0.493149
0.48866
0.483191
0.476586
0.468569
0.458633
0.445656
0.425774
0.236431
0.202452
0.200101
0.200003
0.2
0.2
0.2
0.2
0.2
0.2
0.2
0.2
0.2
0.2
0.2
0.2
0.2
0.2
0.2
0.2
0.345031
0.360913
0.365969
0.366726
0.362382
0.349916
0.323099
0.273513
0.219372
0.201507
0.493731
0.491083
0.487618
0.483298
0.478018
0.471598
0.463731
0.453862
0.440784
0.420363
0.235313
0.202348
0.200096
0.200003
0.2
0.2
0.2
0.2
0.2
0.2
0.2
0.2
0.2
0.2
0.2
0.2
0.2
0.2
0.2
0.2
0.33891
0.355387
0.360777
0.361653
0.357177
0.344111
0.315796
0.265363
0.215819
0.20117
0.488176
0.485614
0.482297
0.478169
0.473108
0.466908
0.459226
0.449449
0.436267
0.415223
0.234363
0.202268
0.200092
0.200003
0.2
0.2
0.2
0.2
0.2
0.2
0.2
0.2
0.2
0.2
0.2
0.2
0.2
0.2
0.2
0.2
0.332375
0.349398
0.355174
0.356205
0.351633
0.337996
0.308303
0.25797
0.213152
0.200944
0.482757
0.480296
0.477148
0.473244
0.468443
0.462513
0.455071
0.44544
0.432182
0.410447
0.233724
0.202227
0.200092
0.200003
0.2
0.2
0.2
0.2
0.2
0.2
0.2
0.2
0.2
0.2
0.2
0.2
0.2
0.2
0.2
0.2
0.325254
0.342769
0.349006
0.350268
0.345685
0.331586
0.300857
0.25168
0.211284
0.200803
0.477427
0.475083
0.47213
0.468487
0.463997
0.458406
0.45129
0.441898
0.428642
0.406202
0.23363
0.202253
0.200093
0.200003
0.2
0.2
0.2
0.2
0.2
0.2
0.2
0.2
0.2
0.2
0.2
0.2
0.2
0.2
0.2
0.2
0.317303
0.335235
0.34205
0.343682
0.339254
0.324928
0.293773
0.246719
0.210123
0.200734
0.472129
0.469921
0.467192
0.463852
0.459736
0.454569
0.447897
0.438897
0.425813
0.40277
0.234519
0.202403
0.200101
0.200003
0.2
0.2
0.2
0.2
0.2
0.2
0.2
0.2
0.2
0.2
0.2
0.2
0.2
0.2
0.2
0.2
0.308174
0.326399
0.333972
0.336214
0.33223
0.31809
0.287383
0.243175
0.209594
0.20073
0.466801
0.464748
0.462272
0.459279
0.4556
0.450958
0.444881
0.436499
0.423902
0.40062
0.237404
0.2028
0.20012
0.200004
0.2
0.2
0.2
0.2
0.2
0.2
0.2
0.2
0.2
0.2
0.2
0.2
0.2
0.2
0.2
0.2
0.29739
0.315659
0.324268
0.32752
0.324446
0.311125
0.281915
0.241001
0.209645
0.200794
0.461365
0.459487
0.457289
0.45468
0.451498
0.44748
0.442169
0.4347
0.423108
0.400496
0.245248
0.203804
0.200165
0.200004
0.2
0.2
0.2
0.2
0.2
0.2
0.2
0.2
0.2
0.2
0.2
0.2
0.2
0.2
0.2
0.2
0.284357
0.302129
0.312185
0.317079
0.315617
0.303992
0.277388
0.24003
0.210244
0.200939
0.455725
0.454038
0.452136
0.449934
0.447291
0.443975
0.439585
0.433347
0.423457
0.403343
0.267981
0.20646
0.200257
0.200008
0.2
0.2
0.2
0.2
0.2
0.2
0.2
0.2
0.2
0.2
0.2
0.2
0.2
0.2
0.2
0.2
0.268315
0.284618
0.296698
0.30415
0.305272
0.296446
0.273535
0.239941
0.211336
0.201183
0.449757
0.448272
0.44667
0.444879
0.442782
0.440195
0.436802
0.432014
0.424484
0.409464
0.404464
0.399016
0.393665
0.38837
0.383105
0.377852
0.372589
0.367293
0.361931
0.356468
0.350855
0.345031
0.338911
0.332375
0.325255
0.317304
0.308174
0.29739
0.284358
0.268316
0.25667
0.264629
0.277555
0.288101
0.292805
0.287965
0.269794
0.240186
0.212746
0.201539
0.44329
0.442011
0.4407
0.439299
0.437717
0.435809
0.433345
0.429911
0.424665
0.41533
0.410373
0.406041
0.40185
0.397665
0.393441
0.389157
0.384796
0.380338
0.375758
0.371026
0.366098
0.360913
0.355387
0.349398
0.342769
0.335235
0.3264
0.31566
0.30213
0.284619
0.264629
0.256442
0.261217
0.27095
0.278397
0.278043
0.265422
0.240511
0.214383
0.202064
0.436079
0.435001
0.433961
0.432911
0.431778
0.430451
0.428759
0.426423
0.422956
0.417415
0.412842
0.408699
0.404702
0.400729
0.396727
0.39267
0.388539
0.384318
0.379983
0.375508
0.370855
0.365969
0.360778
0.355174
0.349006
0.34205
0.333973
0.324268
0.312186
0.296698
0.277555
0.261218
0.254569
0.257512
0.264047
0.266895
0.259833
0.240357
0.216326
0.202806
0.427737
0.426849
0.426049
0.425298
0.424534
0.423667
0.422565
0.42103
0.41877
0.415376
0.411739
0.408056
0.404335
0.400559
0.396715
0.392794
0.388784
0.384674
0.380443
0.376067
0.37151
0.366726
0.361653
0.356205
0.350268
0.343682
0.336214
0.32752
0.31708
0.304151
0.288102
0.270951
0.257512
0.251792
0.253125
0.255988
0.253081
0.239229
0.218271
0.203798
0.417584
0.416868
0.416275
0.415766
0.415288
0.414759
0.414069
0.413064
0.411549
0.409305
0.406525
0.403395
0.400021
0.39646
0.392742
0.388883
0.384887
0.380747
0.376451
0.371979
0.367301
0.362382
0.357177
0.351633
0.345685
0.339254
0.332231
0.324446
0.315617
0.305272
0.292805
0.278398
0.264048
0.253125
0.248095
0.24764
0.246166
0.237038
0.219876
0.205038
0.40428
0.403709
0.403281
0.402958
0.402684
0.40238
0.401944
0.401241
0.400118
0.398424
0.396155
0.393392
0.390229
0.386739
0.382973
0.378964
0.374726
0.370263
0.365568
0.360625
0.355414
0.349916
0.344111
0.337996
0.331586
0.324928
0.31809
0.311125
0.303992
0.296446
0.287965
0.278043
0.266896
0.255988
0.24764
0.243196
0.240582
0.234284
0.220946
0.206486
0.384897
0.384423
0.384105
0.3839
0.383745
0.383554
0.383218
0.382606
0.381576
0.379997
0.377807
0.375023
0.371697
0.36789
0.363652
0.359017
0.354002
0.348611
0.342834
0.336657
0.330074
0.323099
0.315796
0.308303
0.300857
0.293774
0.287383
0.281915
0.277388
0.273535
0.269794
0.265422
0.259833
0.253081
0.246166
0.240582
0.23663
0.231547
0.221452
0.208075
0.3528
0.352323
0.35202
0.351834
0.351684
0.351465
0.351049
0.350286
0.349024
0.347124
0.344498
0.341118
0.337005
0.332194
0.326723
0.320621
0.313908
0.306611
0.29878
0.290529
0.282022
0.273513
0.265364
0.25797
0.25168
0.24672
0.243175
0.241001
0.24003
0.239941
0.240186
0.240511
0.240357
0.239229
0.237038
0.234284
0.231547
0.228021
0.220994
0.20957
0.296372
0.295778
0.295386
0.295113
0.294855
0.294478
0.293827
0.292729
0.291013
0.288534
0.285195
0.280968
0.275886
0.270035
0.263544
0.256592
0.249407
0.242264
0.235457
0.229254
0.223856
0.219372
0.215819
0.213152
0.211284
0.210123
0.209594
0.209645
0.210244
0.211336
0.212746
0.214382
0.216326
0.218271
0.219876
0.220946
0.221452
0.220994
0.217907
0.210079
0.225669
0.22532
0.225086
0.224914
0.224735
0.224468
0.224021
0.223305
0.222244
0.2208
0.218987
0.216877
0.214584
0.212248
0.210002
0.207956
0.206183
0.204716
0.203549
0.202654
0.201988
0.201507
0.20117
0.200944
0.200803
0.200734
0.20073
0.200794
0.200939
0.201183
0.201539
0.202064
0.202806
0.203798
0.205038
0.206486
0.208075
0.20957
0.210079
0.207487
0.78198
0.770199
0.75254
0.732043
0.711197
0.691238
0.672633
0.655499
0.639807
0.625467
0.612368
0.600386
0.589394
0.57927
0.569915
0.561242
0.553172
0.54563
0.538548
0.531872
0.525546
0.519521
0.513748
0.508181
0.502773
0.497475
0.492232
0.486983
0.481658
0.476167
0.4704
0.464213
0.457408
0.449702
0.440663
0.429585
0.415131
0.393793
0.35315
0.267632
0.770202
0.757763
0.740716
0.721617
0.702269
0.683607
0.666044
0.649723
0.634659
0.620805
0.608081
0.596388
0.585618
0.57567
0.566459
0.557908
0.549944
0.542495
0.535499
0.528905
0.522662
0.516721
0.511039
0.505573
0.500279
0.495111
0.490018
0.48494
0.479803
0.474517
0.468964
0.462993
0.456398
0.448889
0.440028
0.429104
0.414776
0.393537
0.352942
0.267401
0.752542
0.740716
0.725269
0.708171
0.690728
0.673683
0.65742
0.64212
0.627847
0.614604
0.602353
0.591025
0.580541
0.570827
0.561815
0.553437
0.545624
0.538312
0.531448
0.524981
0.518867
0.513062
0.507527
0.502225
0.497117
0.49216
0.487307
0.482495
0.477649
0.472667
0.467422
0.461747
0.455426
0.448157
0.439498
0.428735
0.41453
0.393383
0.352845
0.267292
0.732044
0.721617
0.708171
0.693197
0.677702
0.662316
0.647403
0.633174
0.619738
0.607143
0.595393
0.584455
0.574286
0.564838
0.556057
0.547884
0.540254
0.533112
0.526412
0.520106
0.514156
0.508524
0.503179
0.49809
0.493225
0.488548
0.484014
0.479563
0.47511
0.470542
0.46571
0.460424
0.454448
0.44747
0.439043
0.428451
0.414363
0.393296
0.352808
0.267239
0.711197
0.70227
0.690729
0.677703
0.663997
0.650148
0.636501
0.623283
0.610636
0.598647
0.587359
0.576788
0.566929
0.557754
0.549218
0.541265
0.533836
0.526885
0.520366
0.514241
0.508474
0.503037
0.497907
0.493061
0.488479
0.484135
0.479991
0.47599
0.472041
0.468013
0.463722
0.458941
0.453401
0.446776
0.438614
0.428206
0.41423
0.393228
0.352766
0.267156
0.691238
0.683608
0.673683
0.662316
0.650148
0.637633
0.625093
0.61275
0.600768
0.589264
0.578338
0.568068
0.558483
0.549565
0.541269
0.533534
0.526313
0.519558
0.513227
0.507284
0.501703
0.496463
0.491551
0.486956
0.482674
0.478693
0.474994
0.471528
0.468206
0.464872
0.461293
0.45717
0.452187
0.445996
0.438146
0.427938
0.414072
0.393116
0.352636
0.266938
0.672633
0.666045
0.657421
0.647403
0.636501
0.625093
0.613457
0.6018
0.590283
0.579063
0.568326
0.558241
0.548862
0.540163
0.532082
0.524558
0.517538
0.51097
0.504816
0.499043
0.493631
0.488567
0.483849
0.479482
0.475481
0.471861
0.46863
0.465771
0.463208
0.46077
0.458149
0.45491
0.450657
0.445016
0.437542
0.427563
0.413809
0.39288
0.352322
0.266466
0.655499
0.649724
0.64212
0.633174
0.623283
0.61275
0.6018
0.590592
0.579268
0.568019
0.557153
0.547061
0.537787
0.52925
0.521356
0.514024
0.507186
0.500786
0.494783
0.489149
0.483866
0.47893
0.474349
0.470144
0.466354
0.46303
0.46023
0.458001
0.456329
0.455059
0.453795
0.451814
0.448574
0.443667
0.436675
0.426976
0.41335
0.392434
0.351718
0.265616
0.639807
0.63466
0.627847
0.619737
0.610636
0.600768
0.590283
0.579268
0.567786
0.555952
0.544213
0.533801
0.524507
0.516079
0.508344
0.501179
0.494495
0.488229
0.482335
0.476784
0.471561
0.466665
0.462112
0.457938
0.454203
0.451001
0.448464
0.446758
0.446038
0.44631
0.447155
0.447206
0.445548
0.441714
0.435386
0.426055
0.412594
0.391688
0.350723
0.264271
0.625467
0.620805
0.614604
0.607143
0.598647
0.589264
0.579063
0.568019
0.555952
0.542391
0.526819
0.515713
0.506335
0.498004
0.490413
0.483388
0.476815
0.470619
0.464747
0.459166
0.453857
0.448817
0.444061
0.439629
0.435595
0.432082
0.4293
0.427594
0.427519
0.429813
0.434754
0.439436
0.440903
0.438859
0.433511
0.424692
0.411459
0.39057
0.34925
0.262342
0.612368
0.608081
0.602352
0.595393
0.587359
0.578338
0.568325
0.557153
0.544214
0.526819
0.251627
0.242874
0.248439
0.252023
0.254176
0.255422
0.256045
0.256223
0.256085
0.255736
0.255266
0.254772
0.254359
0.254163
0.254373
0.255299
0.257527
0.262418
0.273963
0.304349
0.430163
0.43521
0.437057
0.435814
0.431211
0.422892
0.409915
0.389046
0.347249
0.259779
0.600387
0.596389
0.591025
0.584455
0.576788
0.568068
0.55824
0.54706
0.533801
0.515713
0.242874
0.204709
0.203438
0.204085
0.204593
0.204942
0.205169
0.2053
0.20536
0.205369
0.205349
0.205318
0.2053
0.205323
0.205426
0.205674
0.206196
0.207287
0.209783
0.216029
0.424813
0.431474
0.43358
0.432749
0.428646
0.420736
0.407995
0.387126
0.344706
0.256588
0.589394
0.585618
0.580541
0.574285
0.566929
0.558483
0.548862
0.537786
0.524507
0.506335
0.248439
0.203438
0.200252
0.200173
0.200206
0.200233
0.200253
0.200266
0.200274
0.200277
0.200279
0.200279
0.200279
0.200282
0.20029
0.200308
0.200342
0.200412
0.200559
0.200855
0.41974
0.427909
0.430259
0.429683
0.425915
0.418312
0.40576
0.384854
0.34164
0.252821
0.57927
0.57567
0.570827
0.564838
0.557754
0.549565
0.540163
0.52925
0.516079
0.498004
0.252023
0.204085
0.200173
0.200011
0.200007
0.200008
0.20001
0.20001
0.200011
0.200011
0.20001
0.200011
0.200011
0.200011
0.200011
0.200013
0.200014
0.200016
0.200021
0.200029
0.414887
0.424423
0.42701
0.426614
0.423075
0.415693
0.40328
0.382288
0.338084
0.248572
0.569915
0.566459
0.561815
0.556057
0.549218
0.541268
0.532082
0.521356
0.508344
0.490413
0.254177
0.204593
0.200206
0.200007
0.2
0.2
0.2
0.2
0.2
0.2
0.2
0.2
0.2
0.2
0.2
0.2
0.2
0.2
0.2
0.200001
0.4102
0.420986
0.423795
0.423539
0.420162
0.412935
0.400615
0.379488
0.334071
0.243967
0.561241
0.557908
0.553436
0.547883
0.541265
0.533534
0.524558
0.514024
0.501179
0.483388
0.255422
0.204942
0.200233
0.200008
0.2
0.2
0.2
0.2
0.2
0.2
0.2
0.2
0.2
0.2
0.2
0.2
0.2
0.2
0.2
0.2
0.405651
0.41758
0.420598
0.420456
0.417196
0.410078
0.397821
0.376507
0.329629
0.239158
0.553171
0.549943
0.545623
0.540253
0.533836
0.526313
0.517537
0.507186
0.494495
0.476815
0.256045
0.205169
0.200253
0.20001
0.2
0.2
0.2
0.2
0.2
0.2
0.2
0.2
0.2
0.2
0.2
0.2
0.2
0.2
0.2
0.2
0.401216
0.414194
0.417408
0.417363
0.414192
0.407154
0.394942
0.373387
0.324768
0.234312
0.545629
0.542494
0.538311
0.533112
0.526885
0.519558
0.51097
0.500785
0.488228
0.470619
0.256223
0.2053
0.200266
0.20001
0.2
0.2
0.2
0.2
0.2
0.2
0.2
0.2
0.2
0.2
0.2
0.2
0.2
0.2
0.2
0.2
0.396874
0.410814
0.414215
0.414255
0.411156
0.404186
0.392017
0.37016
0.319488
0.229599
0.538548
0.535499
0.531447
0.526411
0.520366
0.513226
0.504815
0.494783
0.482334
0.464748
0.256085
0.20536
0.200274
0.200011
0.2
0.2
0.2
0.2
0.2
0.2
0.2
0.2
0.2
0.2
0.2
0.2
0.2
0.2
0.2
0.2
0.392604
0.407423
0.411005
0.411127
0.408095
0.401194
0.389083
0.366845
0.313779
0.225179
0.531872
0.528905
0.52498
0.520106
0.51424
0.507284
0.499043
0.489148
0.476783
0.459166
0.255735
0.205369
0.200277
0.200011
0.2
0.2
0.2
0.2
0.2
0.2
0.2
0.2
0.2
0.2
0.2
0.2
0.2
0.2
0.2
0.2
0.388387
0.404004
0.407767
0.407971
0.40501
0.398197
0.386174
0.363446
0.307646
0.221183
0.525546
0.522661
0.518866
0.514155
0.508473
0.501703
0.49363
0.483866
0.47156
0.453857
0.255266
0.205349
0.200279
0.20001
0.2
0.2
0.2
0.2
0.2
0.2
0.2
0.2
0.2
0.2
0.2
0.2
0.2
0.2
0.2
0.2
0.384204
0.400531
0.404484
0.404778
0.401906
0.395216
0.383327
0.359991
0.301132
0.217703
0.519521
0.51672
0.513061
0.508524
0.503037
0.496463
0.488566
0.47893
0.466665
0.448816
0.254772
0.205318
0.200279
0.200011
0.2
0.2
0.2
0.2
0.2
0.2
0.2
0.2
0.2
0.2
0.2
0.2
0.2
0.2
0.2
0.2
0.380031
0.396976
0.401134
0.401538
0.398787
0.392274
0.38058
0.356531
0.294362
0.214792
0.513748
0.511039
0.507527
0.503179
0.497906
0.49155
0.483848
0.474348
0.462112
0.444061
0.254359
0.2053
0.200279
0.200011
0.2
0.2
0.2
0.2
0.2
0.2
0.2
0.2
0.2
0.2
0.2
0.2
0.2
0.2
0.2
0.2
0.375848
0.393304
0.397694
0.398239
0.395659
0.389398
0.377973
0.353115
0.287582
0.212469
0.508181
0.505573
0.502225
0.49809
0.493061
0.486956
0.479482
0.470144
0.457937
0.439629
0.254163
0.205323
0.200282
0.200011
0.2
0.2
0.2
0.2
0.2
0.2
0.2
0.2
0.2
0.2
0.2
0.2
0.2
0.2
0.2
0.2
0.371629
0.38947
0.394134
0.39487
0.392532
0.38662
0.375543
0.349812
0.281177
0.21073
0.502773
0.500279
0.497117
0.493225
0.488479
0.482673
0.47548
0.466353
0.454202
0.435595
0.254373
0.205426
0.20029
0.200011
0.2
0.2
0.2
0.2
0.2
0.2
0.2
0.2
0.2
0.2
0.2
0.2
0.2
0.2
0.2
0.2
0.367354
0.38542
0.390416
0.391418
0.389415
0.383971
0.373325
0.346723
0.275635
0.209563
0.497474
0.495111
0.49216
0.488548
0.484134
0.478693
0.47186
0.463029
0.451001
0.432083
0.255299
0.205674
0.200308
0.200013
0.2
0.2
0.2
0.2
0.2
0.2
0.2
0.2
0.2
0.2
0.2
0.2
0.2
0.2
0.2
0.2
0.363006
0.381081
0.38649
0.387862
0.386314
0.381477
0.371345
0.343992
0.271466
0.20896
0.492231
0.490018
0.487307
0.484014
0.479991
0.474993
0.468629
0.46023
0.448464
0.4293
0.257527
0.206196
0.200342
0.200014
0.2
0.2
0.2
0.2
0.2
0.2
0.2
0.2
0.2
0.2
0.2
0.2
0.2
0.2
0.2
0.2
0.358575
0.376355
0.382278
0.384165
0.383226
0.379149
0.369625
0.341809
0.269101
0.208942
0.486983
0.484939
0.482495
0.479562
0.475989
0.471528
0.46577
0.458001
0.446758
0.427594
0.262418
0.207287
0.200412
0.200016
0.2
0.2
0.2
0.2
0.2
0.2
0.2
0.2
0.2
0.2
0.2
0.2
0.2
0.2
0.2
0.2
0.354055
0.371092
0.377651
0.380255
0.380114
0.376966
0.36818
0.340387
0.26882
0.209571
0.481657
0.479803
0.477648
0.475109
0.472041
0.468206
0.463208
0.456328
0.446038
0.427519
0.273963
0.209783
0.200559
0.200021
0.2
0.2
0.2
0.2
0.2
0.2
0.2
0.2
0.2
0.2
0.2
0.2
0.2
0.2
0.2
0.2
0.349381
0.364991
0.372345
0.375958
0.376868
0.374839
0.366999
0.339914
0.270729
0.210976
0.476166
0.474516
0.472667
0.470541
0.468012
0.464872
0.460769
0.455058
0.44631
0.429813
0.304349
0.216029
0.200855
0.200029
0.200001
0.2
0.2
0.2
0.2
0.2
0.2
0.2
0.2
0.2
0.2
0.2
0.2
0.2
0.2
0.2
0.344106
0.357306
0.365727
0.370834
0.373189
0.372553
0.365984
0.340514
0.274782
0.213354
0.470399
0.468963
0.467421
0.465709
0.463722
0.461293
0.458149
0.453794
0.447154
0.434754
0.430163
0.424813
0.41974
0.414887
0.4102
0.405651
0.401216
0.396873
0.392604
0.388387
0.384204
0.380031
0.375847
0.371629
0.367354
0.363006
0.358575
0.354055
0.349381
0.344106
0.340726
0.347981
0.356939
0.364021
0.368417
0.369633
0.364822
0.342055
0.280952
0.21706
0.464212
0.462992
0.461747
0.460423
0.45894
0.45717
0.45491
0.451813
0.447205
0.439436
0.43521
0.431474
0.427908
0.424423
0.420985
0.41758
0.414193
0.410813
0.407423
0.404003
0.40053
0.396976
0.393304
0.38947
0.38542
0.381081
0.376356
0.371092
0.364991
0.357306
0.347981
0.345365
0.349513
0.356173
0.362112
0.365414
0.362899
0.343735
0.288595
0.222376
0.457408
0.456397
0.455425
0.454447
0.453401
0.452187
0.450657
0.448574
0.445547
0.440902
0.437057
0.43358
0.430259
0.42701
0.423795
0.420598
0.417408
0.414214
0.411005
0.407767
0.404483
0.401134
0.397694
0.394134
0.390416
0.38649
0.382278
0.377651
0.372346
0.365727
0.35694
0.349513
0.347198
0.349941
0.3551
0.359617
0.359474
0.34458
0.296524
0.229364
0.449702
0.448889
0.448156
0.44747
0.446776
0.445996
0.445015
0.443667
0.441713
0.438858
0.435814
0.432749
0.429683
0.426614
0.423538
0.420455
0.417362
0.414255
0.411127
0.407971
0.404778
0.401537
0.398239
0.39487
0.391418
0.387861
0.384165
0.380255
0.375958
0.370834
0.364021
0.356173
0.349941
0.34765
0.349362
0.352934
0.354151
0.343485
0.303331
0.237607
0.440663
0.440028
0.439498
0.439042
0.438614
0.438146
0.437542
0.436675
0.435385
0.43351
0.43121
0.428645
0.425914
0.423075
0.420161
0.417196
0.414191
0.411156
0.408094
0.40501
0.401906
0.398787
0.395659
0.392532
0.389415
0.386314
0.383226
0.380114
0.376867
0.373189
0.368418
0.362112
0.355101
0.349362
0.346625
0.34689
0.347319
0.339651
0.307431
0.246013
0.429585
0.429104
0.428735
0.428451
0.428205
0.427938
0.427563
0.426976
0.426055
0.424691
0.422892
0.420736
0.418311
0.415692
0.412934
0.410078
0.407154
0.404186
0.401194
0.398197
0.395215
0.392274
0.389398
0.38662
0.383971
0.381477
0.379149
0.376965
0.374839
0.372553
0.369633
0.365414
0.359617
0.352934
0.34689
0.342814
0.340078
0.333007
0.307489
0.252903
0.415131
0.414776
0.41453
0.414362
0.41423
0.414071
0.413809
0.413349
0.412594
0.411458
0.409915
0.407994
0.40576
0.403279
0.400615
0.397821
0.394942
0.392017
0.389083
0.386174
0.383326
0.380579
0.377972
0.375543
0.373325
0.371345
0.369625
0.36818
0.366999
0.365984
0.364822
0.362899
0.359474
0.354151
0.347319
0.340078
0.333192
0.324173
0.302917
0.256492
0.393793
0.393537
0.393383
0.393296
0.393228
0.393115
0.39288
0.392433
0.391687
0.39057
0.389045
0.387125
0.384853
0.382288
0.379488
0.376506
0.373386
0.37016
0.366845
0.363446
0.359991
0.35653
0.353115
0.349812
0.346723
0.343992
0.341809
0.340387
0.339914
0.340514
0.342055
0.343735
0.34458
0.343485
0.339651
0.333008
0.324173
0.312841
0.293688
0.255504
0.353149
0.352942
0.352845
0.352808
0.352766
0.352636
0.352322
0.351718
0.350722
0.34925
0.347249
0.344706
0.34164
0.338083
0.334071
0.329629
0.324768
0.319488
0.313779
0.307646
0.301132
0.294362
0.287582
0.281177
0.275635
0.271466
0.269101
0.26882
0.270729
0.274782
0.280952
0.288595
0.296524
0.30333
0.307431
0.307489
0.302917
0.293688
0.277983
0.248833
0.267632
0.2674
0.267292
0.267239
0.267156
0.266937
0.266466
0.265615
0.264271
0.262342
0.259779
0.256588
0.252821
0.248572
0.243967
0.239158
0.234312
0.229599
0.225179
0.221182
0.217703
0.214792
0.212469
0.21073
0.209563
0.20896
0.208942
0.209571
0.210976
0.213354
0.21706
0.222376
0.229364
0.237607
0.246013
0.252902
0.256492
0.255504
0.248833
0.233098
0.798615
0.794109
0.781154
0.76061
0.737445
0.714772
0.693723
0.674562
0.657239
0.641607
0.627489
0.614711
0.603108
0.592522
0.582808
0.573849
0.565549
0.557824
0.550598
0.543804
0.537385
0.531287
0.525461
0.519858
0.51443
0.509129
0.5039
0.498686
0.493416
0.488009
0.482364
0.476351
0.469802
0.462481
0.454035
0.44386
0.430654
0.410781
0.37276
0.287784
0.794111
0.785761
0.769894
0.74929
0.72742
0.706198
0.686386
0.668202
0.65163
0.636573
0.622899
0.610466
0.599132
0.588754
0.579208
0.570389
0.56221
0.554593
0.547465
0.540765
0.53444
0.528439
0.522716
0.517227
0.511926
0.506769
0.501703
0.49667
0.4916
0.486407
0.480983
0.475192
0.468857
0.461735
0.453469
0.443453
0.430384
0.410622
0.372662
0.287657
0.781158
0.769895
0.753387
0.734175
0.714333
0.695022
0.676788
0.659841
0.644223
0.629899
0.616792
0.604802
0.593815
0.583714
0.574397
0.565775
0.55777
0.55031
0.54333
0.536775
0.530595
0.524747
0.519188
0.513878
0.508779
0.503847
0.499034
0.494279
0.489508
0.484626
0.479513
0.47402
0.467956
0.461071
0.453005
0.443152
0.430212
0.410553
0.372655
0.28764
0.760612
0.74929
0.734175
0.717157
0.699587
0.682284
0.665698
0.650054
0.63545
0.621911
0.609414
0.597904
0.587298
0.577509
0.568458
0.560071
0.552278
0.545011
0.538216
0.531842
0.525847
0.520192
0.514842
0.509764
0.504926
0.500289
0.495809
0.491425
0.487055
0.48259
0.47789
0.472781
0.467057
0.460455
0.452613
0.442928
0.430113
0.410545
0.372698
0.287668
0.737445
0.727419
0.714333
0.699587
0.684178
0.668754
0.653716
0.639306
0.625665
0.612871
0.600955
0.589902
0.579669
0.5702
0.561432
0.553301
0.545739
0.538689
0.532102
0.525933
0.520146
0.514709
0.509596
0.504784
0.500249
0.495963
0.491888
0.487964
0.484103
0.480177
0.476013
0.471399
0.466099
0.459836
0.452248
0.442741
0.430044
0.410551
0.372732
0.28766
0.714771
0.706197
0.695022
0.682285
0.668754
0.654965
0.641282
0.627949
0.615136
0.602967
0.591525
0.580852
0.570951
0.561786
0.5533
0.545428
0.538106
0.531283
0.524912
0.518955
0.513382
0.50817
0.503302
0.498767
0.494554
0.490653
0.487037
0.483659
0.480426
0.477189
0.473724
0.469751
0.464988
0.459141
0.451848
0.442534
0.429951
0.410514
0.372681
0.287517
0.693722
0.686387
0.676789
0.665699
0.653716
0.641282
0.628713
0.616242
0.604049
0.59229
0.581126
0.570706
0.561067
0.552171
0.543949
0.536328
0.529244
0.522645
0.516486
0.510734
0.505363
0.50036
0.495719
0.491442
0.487539
0.48402
0.48089
0.478126
0.475651
0.473295
0.470764
0.467647
0.463584
0.45826
0.451324
0.44223
0.429764
0.410361
0.37246
0.287126
0.674562
0.668202
0.659841
0.650055
0.639306
0.627949
0.616243
0.604378
0.59251
0.580816
0.569593
0.559226
0.549751
0.541077
0.533093
0.525709
0.518852
0.512464
0.506499
0.500927
0.495727
0.490893
0.486429
0.482353
0.478696
0.475504
0.472827
0.470701
0.469106
0.467889
0.466668
0.46476
0.461666
0.457038
0.450558
0.441733
0.429399
0.410012
0.371973
0.28637
0.65724
0.651632
0.644224
0.635451
0.625666
0.615137
0.604049
0.59251
0.580578
0.568362
0.55632
0.5457
0.536277
0.527778
0.520012
0.512852
0.506205
0.500004
0.494202
0.488767
0.483682
0.478943
0.474563
0.470572
0.467024
0.464002
0.461624
0.460038
0.459381
0.459649
0.460438
0.460461
0.458867
0.455255
0.449404
0.440934
0.428768
0.409386
0.371131
0.285135
0.641607