/*--------------------------------*- C++ -*----------------------------------*\
| =========                 |                                                 |
| \\      /  F ield         | OpenFOAM: The Open Source CFD Toolbox           |
|  \\    /   O peration     | Version:  2.1.0                                 |
|   \\  /    A nd           | Web:      www.OpenFOAM.org                      |
|    \\/     M anipulation  |                                                 |
\*---------------------------------------------------------------------------*/
FoamFile
{
    version     2.0;
    format      ascii;
    class       volScalarField;
    location    "60225";
    object      kr_o;
}
// * * * * * * * * * * * * * * * * * * * * * * * * * * * * * * * * * * * * * //

dimensions      [0 0 0 0 0 0 0];

internalField   nonuniform List<scalar> 
15000
(
4.78714e-14
5.72515e-07
6.28119e-07
8.61011e-07
1.08088e-05
9.05776e-05
0.000379986
0.00100692
0.00199224
0.00327827
0.00479272
0.00647735
0.00829041
0.0102018
0.0121887
0.0142329
0.016319
0.0184341
0.0205668
0.0227074
0.0248477
0.0269807
0.0291009
0.0312039
0.0332866
0.0353464
0.0373821
0.0393928
0.0413784
0.0433393
0.0452762
0.0471902
0.0490826
0.0509548
0.0528085
0.0546452
0.0564669
0.0582754
0.0600727
0.0618611
0.0636427
0.0654197
0.0671937
0.0689661
0.0707383
0.0725109
0.0742849
0.0760606
0.0778382
0.0796176
0.0813984
0.08318
0.0849615
0.0867418
0.0885194
0.090293
0.0920609
0.0938216
0.0955736
0.0973151
0.099045
0.100762
0.102464
0.104152
0.105825
0.107482
0.109123
0.110748
0.112358
0.113953
0.115534
0.1171
0.118653
0.120193
0.121721
0.123237
0.124742
0.126236
0.127721
0.129196
0.130662
0.13212
0.133569
0.135009
0.136441
0.137865
0.139279
0.140685
0.142081
0.143467
0.144842
0.146205
0.147556
0.148894
0.150218
0.151527
0.152818
0.154092
0.155347
0.156581
0.157793
0.158981
0.160144
0.16128
0.162389
0.163468
0.164516
0.165532
0.166515
0.167465
0.168382
0.169265
0.170116
0.170934
0.171723
0.172481
0.173212
0.173916
0.174594
0.175251
0.175891
0.176523
0.177157
0.17781
0.178499
0.179242
0.180047
0.180892
0.181701
0.182371
0.182884
0.183259
0.183533
0.183806
0.184082
0.184365
0.184657
0.18496
0.185277
0.185611
0.185967
0.186354
0.186784
0.187274
0.187847
0.188542
0.189422
0.190609
0.19241
0.196052
5.71677e-07
1.06307e-06
9.72403e-07
1.84742e-06
2.15067e-05
0.000141058
0.000506673
0.00121998
0.00227626
0.00361172
0.00515851
0.0068644
0.00869184
0.0106134
0.012608
0.0146585
0.01675
0.0188699
0.0210071
0.0231518
0.025296
0.0274326
0.0295562
0.0316622
0.0337475
0.0358097
0.0378472
0.0398594
0.0418461
0.0438077
0.045745
0.0476592
0.0495514
0.0514232
0.053276
0.0551115
0.0569317
0.0587384
0.0605337
0.06232
0.0640994
0.0658739
0.0676453
0.069415
0.0711844
0.0729544
0.0747257
0.0764989
0.0782743
0.0800518
0.0818311
0.0836117
0.0853926
0.0871727
0.0889506
0.090725
0.0924943
0.0942567
0.0960106
0.0977544
0.0994866
0.101206
0.102911
0.104602
0.106277
0.107936
0.109579
0.111207
0.112819
0.114416
0.115998
0.117565
0.119119
0.12066
0.122189
0.123706
0.125212
0.126707
0.128193
0.129669
0.131136
0.132595
0.134045
0.135487
0.136921
0.138346
0.139763
0.141171
0.14257
0.143959
0.145338
0.146707
0.148063
0.149408
0.150739
0.152056
0.153358
0.154643
0.155912
0.157162
0.158392
0.159601
0.160788
0.161951
0.163091
0.164207
0.165297
0.166362
0.167403
0.168419
0.169413
0.170386
0.171342
0.172282
0.173209
0.174125
0.175033
0.175931
0.176821
0.177704
0.17859
0.179501
0.180468
0.181541
0.182785
0.184272
0.186057
0.1881
0.190101
0.191566
0.192522
0.193082
0.193357
0.193525
0.193593
0.193582
0.193536
0.193472
0.193378
0.193233
0.193027
0.192775
0.192507
0.192265
0.192096
0.192056
0.192215
0.192698
0.19381
0.196775
6.2793e-07
9.73631e-07
9.72062e-07
6.50516e-06
5.54256e-05
0.000256722
0.000744668
0.00157595
0.00271916
0.00411064
0.00569185
0.00741906
0.00926045
0.0111918
0.013194
0.0152507
0.0173478
0.0194729
0.0216148
0.023764
0.0259123
0.0280526
0.0301793
0.032288
0.0343752
0.0364386
0.0384767
0.0404888
0.0424747
0.044435
0.0463702
0.0482818
0.0501708
0.0520387
0.0538872
0.0557179
0.0575328
0.0593338
0.0611231
0.0629031
0.0646762
0.0664442
0.0682091
0.0699724
0.0717355
0.0734995
0.0752651
0.0770332
0.078804
0.0805777
0.0823539
0.0841322
0.0859115
0.0876908
0.0894688
0.0912439
0.0930144
0.0947786
0.0965347
0.098281
0.100016
0.101738
0.103446
0.105139
0.106816
0.108478
0.110123
0.111752
0.113365
0.114963
0.116546
0.118114
0.119668
0.121209
0.122738
0.124255
0.12576
0.127255
0.128741
0.130217
0.131684
0.133142
0.134593
0.136036
0.13747
0.138897
0.140316
0.141727
0.14313
0.144524
0.145908
0.147282
0.148646
0.149999
0.15134
0.152668
0.153984
0.155285
0.156571
0.157841
0.159094
0.16033
0.161548
0.162747
0.163928
0.165091
0.166237
0.167367
0.168482
0.169587
0.170685
0.171781
0.17288
0.17399
0.175117
0.176269
0.17745
0.178661
0.179898
0.181155
0.182439
0.183789
0.185274
0.186997
0.189106
0.191784
0.195206
0.199409
0.203575
0.205967
0.207314
0.208011
0.208275
0.208225
0.207856
0.207213
0.206488
0.205744
0.204926
0.203949
0.202773
0.201441
0.200028
0.198633
0.197347
0.196255
0.195443
0.195035
0.19533
0.197544
8.24223e-07
1.73322e-06
6.24614e-06
3.51621e-05
0.000159088
0.000497812
0.00114277
0.00210291
0.0033331
0.00477795
0.00639121
0.00813815
0.00999249
0.0119334
0.0139432
0.0160067
0.01811
0.020241
0.0223885
0.024543
0.026696
0.0288403
0.0309703
0.0330814
0.03517
0.0372337
0.0392711
0.0412814
0.0432645
0.0452211
0.0471518
0.0490579
0.0509406
0.0528016
0.0546423
0.0564647
0.0582705
0.060062
0.0618415
0.0636113
0.0653739
0.0671314
0.0688856
0.0706384
0.0723913
0.0741455
0.0759022
0.077662
0.0794256
0.0811931
0.0829643
0.0847387
0.0865154
0.0882932
0.0900708
0.0918465
0.0936184
0.0953848
0.0971436
0.0988929
0.100631
0.102357
0.104068
0.105764
0.107444
0.109108
0.110755
0.112385
0.113999
0.115597
0.11718
0.118747
0.120301
0.121841
0.123368
0.124884
0.126388
0.127882
0.129366
0.130841
0.132307
0.133765
0.135215
0.136658
0.138093
0.139521
0.140943
0.142357
0.143763
0.145161
0.146551
0.147932
0.149305
0.150668
0.152021
0.153363
0.154695
0.156015
0.157322
0.158617
0.159898
0.161167
0.162422
0.163665
0.164896
0.166118
0.167331
0.16854
0.169749
0.170964
0.172192
0.173443
0.174729
0.176066
0.177472
0.178968
0.180571
0.182291
0.184112
0.185974
0.187861
0.189824
0.191985
0.194525
0.197702
0.201855
0.207368
0.214678
0.221832
0.224167
0.225369
0.225986
0.226225
0.225946
0.225041
0.223456
0.221849
0.220357
0.218789
0.216898
0.214556
0.211869
0.20899
0.206104
0.203388
0.20098
0.198988
0.19754
0.196924
0.198344
9.65427e-06
1.95299e-05
5.19317e-05
0.000154474
0.000417468
0.000933189
0.0017394
0.0028166
0.00412153
0.00561169
0.00725254
0.00901716
0.0108839
0.0128346
0.0148529
0.0169243
0.0190354
0.0211737
0.0233284
0.0254895
0.0276483
0.0297977
0.0319316
0.0340452
0.0361349
0.0381983
0.0402338
0.0422407
0.0442191
0.0461696
0.0480931
0.0499909
0.0518645
0.0537153
0.055545
0.0573555
0.0591488
0.0609269
0.0626924
0.0644478
0.0661956
0.067938
0.0696772
0.0714151
0.0731537
0.0748942
0.0766382
0.0783865
0.0801399
0.0818987
0.0836628
0.0854317
0.0872046
0.0889802
0.0907571
0.0925334
0.0943071
0.0960763
0.0978387
0.0995921
0.101335
0.103064
0.10478
0.106479
0.108162
0.109828
0.111477
0.113108
0.114722
0.11632
0.117901
0.119468
0.121019
0.122558
0.124083
0.125596
0.127098
0.128589
0.130071
0.131543
0.133007
0.134464
0.135912
0.137355
0.13879
0.140219
0.141642
0.143059
0.14447
0.145873
0.14727
0.148659
0.150041
0.151415
0.152782
0.154141
0.155491
0.156832
0.158165
0.159488
0.160803
0.162109
0.163408
0.164701
0.165991
0.167281
0.168573
0.169876
0.171194
0.17254
0.173925
0.175367
0.17689
0.178525
0.180313
0.182308
0.184566
0.187137
0.189972
0.192779
0.195464
0.198127
0.200968
0.204265
0.208384
0.213813
0.221154
0.231827
0.240847
0.241189
0.242082
0.242486
0.242738
0.242499
0.241429
0.238801
0.236446
0.234651
0.232847
0.230475
0.227164
0.223172
0.218765
0.214216
0.209865
0.205965
0.202666
0.200098
0.198532
0.199155
8.0311e-05
0.000127327
0.000237974
0.000475387
0.00091485
0.00160422
0.00254658
0.0037162
0.00507947
0.00660591
0.00827021
0.0100512
0.0119308
0.0138926
0.0159214
0.0180029
0.020124
0.0222722
0.0244364
0.0266062
0.028773
0.0309289
0.0330678
0.0351847
0.0372757
0.0393383
0.0413709
0.0433729
0.0453447
0.0472869
0.0492007
0.0510875
0.0529489
0.0547864
0.0566017
0.0583967
0.0601734
0.0619341
0.0636813
0.0654178
0.0671461
0.0688688
0.0705881
0.0723065
0.074026
0.0757485
0.0774755
0.0792085
0.0809483
0.0826955
0.0844502
0.0862118
0.0879797
0.0897524
0.0915283
0.0933055
0.0950817
0.0968545
0.0986215
0.10038
0.102128
0.103863
0.105584
0.107288
0.108975
0.110643
0.112294
0.113925
0.115539
0.117135
0.118715
0.120279
0.121828
0.123363
0.124885
0.126395
0.127893
0.129381
0.130859
0.132328
0.133789
0.135242
0.136688
0.138129
0.139564
0.140993
0.142418
0.143837
0.145251
0.146661
0.148065
0.149462
0.150855
0.152242
0.153625
0.155001
0.156372
0.157738
0.159098
0.160454
0.161805
0.163154
0.164503
0.165853
0.167209
0.168575
0.169958
0.171366
0.172811
0.174308
0.175878
0.17755
0.179365
0.181383
0.183687
0.186395
0.189661
0.193661
0.198305
0.202412
0.205916
0.209107
0.212341
0.215991
0.220489
0.226372
0.234286
0.247198
0.2522
0.262551
0.272012
0.281705
0.286714
0.281607
0.268661
0.244645
0.24312
0.242493
0.241789
0.240356
0.237274
0.23296
0.227819
0.221942
0.216076
0.210741
0.206183
0.202542
0.200075
0.199953
0.000337496
0.000457375
0.000687436
0.00108124
0.00168333
0.00251031
0.00355302
0.00478992
0.00619714
0.00775301
0.00943841
0.0112362
0.0131304
0.0151059
0.0171483
0.0192435
0.0213782
0.0235398
0.0257168
0.0278988
0.0300763
0.0322415
0.0343875
0.036509
0.038602
0.0406637
0.0426926
0.0446885
0.0466516
0.0485831
0.0504845
0.0523575
0.0542037
0.0560247
0.0578222
0.0595981
0.0613544
0.0630934
0.0648179
0.0665306
0.0682343
0.0699316
0.0716256
0.0733188
0.0750138
0.0767129
0.0784183
0.0801314
0.0818538
0.083586
0.0853284
0.0870807
0.0888421
0.0906112
0.092386
0.0941645
0.095944
0.0977216
0.0994947
0.10126
0.103015
0.104758
0.106485
0.108195
0.109886
0.111558
0.11321
0.114842
0.116454
0.118049
0.119626
0.121187
0.122732
0.124263
0.125781
0.127286
0.128779
0.130262
0.131735
0.133199
0.134654
0.136103
0.137546
0.138984
0.140416
0.141845
0.14327
0.144692
0.146111
0.147526
0.148938
0.150345
0.151749
0.15315
0.154549
0.155945
0.157339
0.158731
0.160122
0.161513
0.162906
0.164302
0.165704
0.167117
0.168546
0.169997
0.171479
0.173006
0.174592
0.176262
0.178046
0.17999
0.182161
0.18466
0.187637
0.191319
0.196055
0.202391
0.210295
0.215694
0.219579
0.222772
0.225833
0.229188
0.23324
0.23842
0.245199
0.258725
0.293807
0.525737
0.560332
0.562448
0.545056
0.360185
0.36402
0.369395
0.352585
0.334613
0.30574
0.277121
0.243182
0.239406
0.234942
0.228203
0.221165
0.214735
0.2092
0.204693
0.201472
0.200712
0.000897622
0.001103
0.00145198
0.00197786
0.00270131
0.0036245
0.00473678
0.00602223
0.00746387
0.00904562
0.0107522
0.012569
0.0144813
0.0164748
0.0185354
0.020649
0.0228023
0.0249822
0.027177
0.0293757
0.0315684
0.0337465
0.0359028
0.0380314
0.0401278
0.0421892
0.0442141
0.0462023
0.0481547
0.050073
0.0519592
0.0538154
0.0556434
0.0574448
0.0592213
0.0609744
0.0627063
0.0644192
0.0661158
0.0677989
0.0694717
0.0711373
0.0727993
0.0744608
0.076125
0.0777946
0.0794724
0.0811604
0.0828603
0.0845735
0.0863004
0.0880409
0.0897942
0.0915587
0.0933324
0.0951126
0.0968965
0.0986807
0.100462
0.102237
0.104001
0.105753
0.107488
0.109206
0.110903
0.112579
0.114232
0.115865
0.117476
0.119068
0.120641
0.122197
0.123737
0.125263
0.126775
0.128274
0.129761
0.131238
0.132704
0.134161
0.13561
0.137053
0.13849
0.139923
0.141353
0.142779
0.144204
0.145628
0.14705
0.148471
0.149891
0.151309
0.152725
0.154141
0.155558
0.156975
0.158394
0.159815
0.161239
0.162668
0.164104
0.165551
0.167012
0.168492
0.17
0.171543
0.173135
0.174792
0.176536
0.1784
0.180429
0.18269
0.185285
0.188367
0.192174
0.197085
0.20377
0.213604
0.227132
0.23265
0.23602
0.238565
0.24091
0.243399
0.246305
0.249909
0.25454
0.269314
0.316545
0.436623
0.550677
0.56206
0.562334
0.552339
0.549187
0.546451
0.539008
0.533786
0.367143
0.349105
0.284779
0.257257
0.23671
0.230385
0.223822
0.217352
0.211445
0.206426
0.202667
0.201416
0.00178036
0.00205911
0.00249991
0.00311946
0.00392487
0.00491308
0.00607468
0.00739782
0.00886975
0.0104775
0.0122081
0.0140482
0.015984
0.0180016
0.0200867
0.0222254
0.0244038
0.0266088
0.028828
0.0310499
0.0332638
0.0354606
0.037632
0.0397714
0.0418739
0.0439362
0.0459568
0.0479359
0.0498754
0.0517776
0.0536454
0.0554815
0.057288
0.0590667
0.0608188
0.0625457
0.064249
0.0659307
0.0675935
0.0692404
0.070875
0.0725014
0.0741235
0.0757454
0.0773708
0.0790033
0.0806463
0.0823024
0.0839742
0.0856632
0.0873704
0.0890961
0.0908392
0.0925981
0.0943705
0.0961534
0.0979432
0.0997361
0.101528
0.103315
0.105092
0.106856
0.108603
0.11033
0.112035
0.113716
0.115372
0.117004
0.118614
0.120201
0.12177
0.12332
0.124854
0.126373
0.127878
0.12937
0.130849
0.132317
0.133775
0.135223
0.136664
0.138098
0.139527
0.140953
0.142378
0.143801
0.145225
0.146649
0.148074
0.1495
0.150928
0.152358
0.153786
0.155217
0.156652
0.158092
0.159537
0.160988
0.162447
0.163917
0.165401
0.166902
0.168426
0.16998
0.171573
0.173216
0.174927
0.176727
0.178646
0.180728
0.183036
0.185663
0.188748
0.192503
0.197258
0.203558
0.212474
0.22666
0.247769
0.251873
0.254842
0.256683
0.258146
0.259273
0.260325
0.26157
0.263228
0.283638
0.358366
0.49132
0.556404
0.562262
0.562492
0.562257
0.562086
0.561872
0.56148
0.561329
0.537868
0.532934
0.481426
0.263747
0.23708
0.231234
0.22516
0.21894
0.213
0.207746
0.203656
0.202062
0.00292966
0.00326269
0.00376727
0.00444984
0.00531102
0.00634599
0.00754671
0.00890371
0.0104066
0.0120441
0.0138043
0.0156746
0.0176415
0.0196911
0.0218091
0.0239814
0.0261938
0.0284328
0.0306854
0.0329394
0.0351833
0.0374068
0.0396006
0.0417569
0.0438698
0.0459354
0.0479521
0.0499208
0.0518443
0.0537266
0.055572
0.0573844
0.0591663
0.0609191
0.0626438
0.0643409
0.0660111
0.067656
0.0692779
0.0708805
0.0724681
0.0740456
0.075618
0.0771904
0.0787672
0.0803531
0.0819521
0.0835679
0.0852037
0.086862
0.0885445
0.0902512
0.0919816
0.0937337
0.0955047
0.0972912
0.0990889
0.100893
0.102699
0.104502
0.106296
0.108076
0.109839
0.11158
0.113295
0.114983
0.116643
0.118275
0.119881
0.121463
0.123025
0.124567
0.126093
0.127604
0.129101
0.130584
0.132054
0.133512
0.134959
0.136396
0.137825
0.139247
0.140666
0.142083
0.143499
0.144917
0.146337
0.147761
0.149188
0.150619
0.152055
0.153495
0.154938
0.156385
0.157839
0.159302
0.160774
0.162257
0.163755
0.165268
0.166802
0.168362
0.169954
0.171588
0.173273
0.175026
0.176866
0.178824
0.180937
0.183264
0.185887
0.188925
0.192558
0.197051
0.20281
0.210509
0.221562
0.23963
0.264043
0.298863
0.326526
0.359462
0.416971
0.486539
0.491151
0.438457
0.330942
0.339491
0.438319
0.551719
0.56195
0.56248
0.562499
0.562494
0.562488
0.562478
0.562465
0.562461
0.561488
0.561156
0.55479
0.243263
0.236974
0.231687
0.225733
0.219872
0.214054
0.208733
0.204465
0.202653
0.00427231
0.00464431
0.00519368
0.00592136
0.00682494
0.00789909
0.00913672
0.0105296
0.0120685
0.0137429
0.0155414
0.0174513
0.0194595
0.0215517
0.0237135
0.0259305
0.0281885
0.0304733
0.0327714
0.0350699
0.037356
0.0396181
0.0418453
0.0440282
0.0461589
0.0482324
0.0502466
0.0522031
0.0541067
0.0559639
0.0577817
0.0595656
0.0613191
0.0630434
0.0647381
0.0664019
0.068034
0.069635
0.0712075
0.0727554
0.0742845
0.075801
0.0773113
0.0788214
0.0803372
0.0818639
0.083407
0.0849712
0.0865611
0.0881802
0.0898308
0.0915134
0.0932276
0.0949712
0.0967407
0.0985321
0.10034
0.102159
0.103984
0.105808
0.107624
0.109428
0.111212
0.112971
0.114708
0.116414
0.118084
0.119715
0.121316
0.12289
0.124442
0.125974
0.127491
0.128992
0.130479
0.131952
0.13341
0.134856
0.136289
0.137711
0.139124
0.14053
0.141934
0.143336
0.14474
0.146148
0.147562
0.148982
0.15041
0.151844
0.153287
0.154737
0.156196
0.157658
0.159133
0.16062
0.162121
0.16364
0.165177
0.166738
0.168326
0.169949
0.171615
0.173333
0.175118
0.176989
0.178973
0.181105
0.183436
0.186037
0.189011
0.192504
0.196727
0.201986
0.208747
0.217789
0.230886
0.252646
0.276616
0.3515
0.478039
0.559186
0.56246
0.562134
0.554541
0.549844
0.556478
0.51906
0.545699
0.561216
0.562443
0.562498
0.5625
0.5625
0.5625
0.562499
0.562499
0.562499
0.562476
0.562474
0.482463
0.242583
0.237006
0.23204
0.226249
0.220489
0.214799
0.209487
0.205137
0.203202
0.00574658
0.00614835
0.00673261
0.00749768
0.00843978
0.00955347
0.0108321
0.012268
0.0138522
0.0155744
0.017423
0.0193854
0.0214477
0.023596
0.0258155
0.0280917
0.0304101
0.0327565
0.0351167
0.0374768
0.0398231
0.0421418
0.0444198
0.0466448
0.0488061
0.0508961
0.0529112
0.0548537
0.0567313
0.0585552
0.0603371
0.0620862
0.0638071
0.0655003
0.0671626
0.0687897
0.0703782
0.0719272
0.073439
0.0749188
0.076374
0.0778132
0.0792445
0.0806757
0.0821136
0.0835648
0.0850359
0.0865336
0.0880638
0.0896318
0.0912408
0.0928924
0.0945856
0.0963182
0.098086
0.0998838
0.101705
0.103544
0.105393
0.107245
0.109092
0.110927
0.112741
0.114546
0.11632
0.118054
0.119742
0.12138
0.122974
0.124537
0.126074
0.127593
0.129096
0.130584
0.132059
0.133518
0.134963
0.136392
0.137806
0.139208
0.140599
0.141984
0.143365
0.144746
0.146133
0.147526
0.148929
0.150342
0.151767
0.153204
0.154652
0.156112
0.157583
0.159061
0.160556
0.162068
0.1636
0.165154
0.166734
0.168345
0.169992
0.171682
0.173427
0.175238
0.177133
0.179137
0.181281
0.18361
0.186185
0.189093
0.192453
0.19643
0.201258
0.207272
0.21498
0.225275
0.240415
0.266081
0.286134
0.423406
0.558961
0.562459
0.5625
0.562499
0.562405
0.562218
0.562246
0.559998
0.561411
0.562432
0.562497
0.5625
0.5625
0.5625
0.5625
0.5625
0.5625
0.5625
0.5625
0.557705
0.336597
0.242697
0.237204
0.232347
0.226714
0.221021
0.215362
0.210087
0.205714
0.203722
0.00730592
0.00773303
0.00834913
0.00915116
0.0101348
0.0112946
0.0126238
0.0141147
0.015758
0.017543
0.0194575
0.0214884
0.0236217
0.025843
0.0281379
0.0304918
0.0328903
0.0353192
0.0377643
0.0402107
0.0426433
0.0450462
0.0474031
0.0496971
0.0519125
0.0540359
0.0560599
0.0579862
0.0598277
0.0616041
0.0633366
0.0650403
0.0667224
0.0683814
0.0700099
0.0715978
0.0731369
0.0746237
0.0760599
0.0774525
0.0788121
0.0801509
0.0814801
0.0828092
0.0841464
0.0854992
0.086876
0.0882857
0.0897369
0.091237
0.092791
0.0944012
0.096067
0.0977852
0.0995505
0.101357
0.103196
0.10506
0.106941
0.10883
0.110719
0.112597
0.11448
0.116342
0.118168
0.119945
0.12166
0.123308
0.124891
0.126436
0.127954
0.129453
0.130938
0.132412
0.133873
0.135318
0.136746
0.138156
0.139548
0.140924
0.142287
0.14364
0.14499
0.146343
0.147703
0.149075
0.150461
0.151864
0.153283
0.154719
0.15617
0.157638
0.159123
0.160624
0.162137
0.163673
0.165236
0.166827
0.168452
0.170116
0.171827
0.173592
0.175426
0.177342
0.179364
0.18152
0.183849
0.186403
0.189254
0.192498
0.196265
0.200732
0.206143
0.212847
0.221391
0.232804
0.250083
0.280744
0.295554
0.498642
0.560005
0.562445
0.562499
0.5625
0.562499
0.562495
0.562493
0.562422
0.562465
0.562498
0.5625
0.5625
0.5625
0.5625
0.5625
0.5625
0.5625
0.562494
0.562055
0.53251
0.302293
0.242898
0.237429
0.232612
0.227088
0.221484
0.215877
0.210605
0.206227
0.204222
0.00891472
0.00936622
0.0100159
0.01086
0.0118939
0.0131116
0.0145064
0.0160695
0.0177908
0.0196584
0.0216593
0.0237795
0.0260047
0.0283206
0.0307131
0.0331684
0.0356728
0.0382128
0.0407746
0.0433432
0.0459024
0.048434
0.0509171
0.0533283
0.0556876
0.0579351
0.0599894
0.0618993
0.0636856
0.0653845
0.0670362
0.0686689
0.0702949
0.071911
0.0735017
0.0750459
0.0765252
0.077931
0.0792643
0.0805349
0.0817595
0.0829572
0.0841446
0.0853336
0.0865329
0.087751
0.0889979
0.0902855
0.0916266
0.0930323
0.0945101
0.0960634
0.0976912
0.0993892
0.101151
0.102967
0.104828
0.106725
0.108648
0.110587
0.112532
0.114491
0.116458
0.11841
0.120328
0.122186
0.123958
0.125624
0.127189
0.128705
0.130191
0.131661
0.133123
0.134579
0.136024
0.137453
0.138862
0.140248
0.14161
0.14295
0.144272
0.145581
0.146885
0.148194
0.149514
0.150853
0.152213
0.153597
0.155004
0.156434
0.157887
0.15936
0.160855
0.162373
0.163904
0.165466
0.167061
0.168695
0.170371
0.172098
0.173883
0.175737
0.177677
0.179721
0.181894
0.184231
0.186774
0.189583
0.192735
0.196329
0.200501
0.205428
0.211353
0.218629
0.227831
0.240121
0.25934
0.294529
0.38105
0.524875
0.561509
0.562482
0.5625
0.5625
0.5625
0.5625
0.5625
0.562498
0.562499
0.5625
0.5625
0.5625
0.5625
0.5625
0.5625
0.5625
0.5625
0.562484
0.561705
0.53275
0.279112
0.242928
0.237572
0.232814
0.227397
0.221881
0.216335
0.211094
0.206727
0.204715
0.0105444
0.0110219
0.0117106
0.0126064
0.0137043
0.014998
0.0164795
0.0181386
0.0199631
0.0219392
0.0240525
0.026288
0.0286314
0.0310688
0.0335873
0.0361748
0.0388196
0.0415103
0.0442348
0.0469797
0.0497292
0.0524631
0.0552306
0.0581567
0.0611211
0.0639891
0.0665308
0.0683956
0.0700176
0.0714774
0.0728795
0.074292
0.0757471
0.0772409
0.0787385
0.0801882
0.0815438
0.0827832
0.0839053
0.0849269
0.0858792
0.0868006
0.0877207
0.0886555
0.0896131
0.0906004
0.0916283
0.0927131
0.0938735
0.0951262
0.0964819
0.0979444
0.0995111
0.101175
0.102925
0.10475
0.106637
0.108575
0.110552
0.112557
0.114579
0.116656
0.118756
0.120865
0.122958
0.124995
0.126905
0.128623
0.130156
0.131619
0.133046
0.134465
0.135888
0.137317
0.138743
0.140153
0.141537
0.14289
0.14421
0.145497
0.146755
0.147993
0.149221
0.150455
0.151708
0.15299
0.154305
0.155654
0.157038
0.158454
0.159899
0.161373
0.162874
0.164405
0.165962
0.167546
0.169176
0.170855
0.172591
0.174391
0.176267
0.178232
0.180302
0.182501
0.184857
0.187405
0.190192
0.193276
0.196736
0.200669
0.205207
0.210521
0.216847
0.224536
0.234181
0.247066
0.267829
0.304866
0.437068
0.538049
0.561865
0.562488
0.5625
0.5625
0.5625
0.5625
0.5625
0.5625
0.5625
0.5625
0.5625
0.5625
0.5625
0.5625
0.5625
0.5625
0.562499
0.562482
0.561905
0.548149
0.249405
0.24252
0.237585
0.23296
0.22767
0.222243
0.216763
0.211566
0.207222
0.20521
0.0121706
0.0126778
0.0134142
0.0143758
0.0155575
0.0169521
0.0185496
0.0203369
0.0222983
0.0244167
0.0266756
0.0290592
0.0315534
0.0341461
0.036827
0.0395873
0.0424196
0.0453172
0.0482731
0.0512792
0.0543242
0.0575386
0.0611772
0.0651436
0.0695023
0.0739751
0.078203
0.0803826
0.0816245
0.0824453
0.0831819
0.0840193
0.0850553
0.0862936
0.08765
0.0889791
0.0901388
0.0910699
0.0917649
0.0922538
0.0926064
0.0929236
0.0932737
0.0936833
0.0941547
0.0946869
0.0952886
0.0959826
0.0967994
0.0977653
0.0988948
0.10019
0.101642
0.103236
0.104954
0.106779
0.108691
0.110676
0.112719
0.114811
0.116962
0.119201
0.121515
0.123903
0.126352
0.1288
0.131078
0.13293
0.134407
0.135756
0.13706
0.138373
0.139723
0.141109
0.142509
0.143895
0.145247
0.146552
0.147806
0.149006
0.150156
0.151265
0.152353
0.153449
0.154576
0.155749
0.156978
0.158262
0.159597
0.160978
0.162402
0.163863
0.165361
0.166898
0.168476
0.170079
0.171744
0.173476
0.175282
0.177173
0.17916
0.181258
0.183488
0.185872
0.188439
0.191223
0.194267
0.197626
0.201369
0.20559
0.210411
0.215997
0.222576
0.230498
0.240377
0.253606
0.275639
0.312501
0.485818
0.556025
0.562326
0.562497
0.5625
0.5625
0.5625
0.5625
0.5625
0.5625
0.5625
0.5625
0.5625
0.5625
0.5625
0.5625
0.5625
0.5625
0.562499
0.562451
0.560738
0.516582
0.248543
0.24239
0.237682
0.233139
0.227953
0.222606
0.217188
0.212033
0.207718
0.205706
0.0137742
0.0143182
0.0151147
0.0161593
0.0174453
0.0189691
0.0207343
0.0226949
0.0248383
0.027143
0.0295896
0.0321618
0.0348476
0.0376382
0.0405287
0.0435168
0.0466032
0.0497908
0.053085
0.0564922
0.0601125
0.0645995
0.0699759
0.07635
0.0840023
0.0916552
0.100028
0.102957
0.103363
0.102436
0.101447
0.100859
0.100952
0.101779
0.103288
0.105634
0.10662
0.107036
0.106868
0.106163
0.105087
0.103975
0.10303
0.102298
0.101746
0.101334
0.101053
0.100937
0.101045
0.101427
0.102103
0.103065
0.104287
0.105736
0.107376
0.109175
0.111102
0.113137
0.115261
0.117465
0.119802
0.122281
0.12493
0.127794
0.130915
0.134254
0.137431
0.139527
0.140886
0.141971
0.142997
0.144079
0.145282
0.146607
0.147999
0.149376
0.150697
0.151944
0.153107
0.154175
0.155145
0.156026
0.156852
0.157684
0.158569
0.159538
0.160604
0.161763
0.163006
0.16432
0.165694
0.167121
0.168598
0.170126
0.17171
0.173346
0.175036
0.176818
0.1787
0.180691
0.182805
0.185057
0.187468
0.19006
0.192857
0.195885
0.199176
0.202771
0.20673
0.211139
0.216115
0.221821
0.228486
0.236466
0.246401
0.259808
0.283107
0.318095
0.517355
0.561581
0.562484
0.5625
0.5625
0.5625
0.5625
0.5625
0.5625
0.5625
0.5625
0.5625
0.5625
0.5625
0.5625
0.5625
0.5625
0.5625
0.562499
0.562415
0.556759
0.3844
0.248634
0.242541
0.237901
0.233392
0.228279
0.222995
0.217628
0.21251
0.208218
0.206205
0.0153421
0.0159374
0.0168168
0.017976
0.0194067
0.0210988
0.0230513
0.0252089
0.027551
0.0301796
0.0328887
0.0357013
0.0386292
0.0416724
0.0448354
0.0481279
0.0515663
0.0551737
0.0589825
0.0630379
0.068378
0.0754158
0.0846914
0.0950341
0.107685
0.117244
0.129314
0.131547
0.131254
0.12757
0.1242
0.121753
0.12079
0.121607
0.125598
0.131563
0.134076
0.134243
0.133053
0.130439
0.12659
0.12268
0.119349
0.116638
0.11435
0.112303
0.110426
0.10878
0.107519
0.10677
0.106576
0.106909
0.107702
0.108877
0.11036
0.112089
0.114014
0.116097
0.118317
0.120665
0.123226
0.12603
0.129154
0.132726
0.136932
0.141855
0.146765
0.148945
0.15006
0.150557
0.151042
0.151701
0.152676
0.153988
0.155759
0.157373
0.158708
0.159916
0.160985
0.161889
0.162599
0.163101
0.163445
0.16379
0.164232
0.164833
0.165615
0.166565
0.167655
0.168855
0.170143
0.171503
0.172929
0.174423
0.175993
0.177648
0.179349
0.181175
0.183132
0.185228
0.187477
0.189893
0.192495
0.195301
0.198327
0.201582
0.205071
0.208819
0.212875
0.217322
0.222288
0.227945
0.234529
0.242409
0.252267
0.265804
0.290888
0.322458
0.525328
0.561582
0.562484
0.5625
0.5625
0.5625
0.5625
0.5625
0.5625
0.5625
0.5625
0.5625
0.5625
0.5625
0.5625
0.5625
0.5625
0.562498
0.562466
0.560166
0.506976
0.316329
0.24886
0.242809
0.238211
0.233725
0.228669
0.223432
0.218101
0.213005
0.208724
0.206707
0.0168597
0.0175249
0.0185173
0.0198347
0.0214669
0.0233959
0.0256037
0.0280271
0.0306404
0.0335044
0.0364735
0.0398304
0.0430707
0.0464396
0.0499629
0.0536737
0.0576181
0.0618613
0.0664988
0.072334
0.0807976
0.093403
0.109149
0.121815
0.137346
0.142438
0.146982
0.167273
0.172335
0.138136
0.136088
0.134354
0.133919
0.135828
0.14348
0.15431
0.157484
0.159565
0.159168
0.156532
0.150564
0.144077
0.138815
0.134673
0.13105
0.127475
0.12375
0.119991
0.116638
0.114097
0.112523
0.11187
0.111999
0.112757
0.114002
0.115622
0.117532
0.119672
0.122009
0.124538
0.127364
0.130544
0.134217
0.138628
0.144215
0.151132
0.157751
0.159411
0.160205
0.159741
0.159561
0.159712
0.1605
0.162064
0.165565
0.167804
0.169404
0.170659
0.171723
0.172539
0.173014
0.173028
0.172569
0.172119
0.171841
0.17187
0.172238
0.172903
0.173795
0.174853
0.176028
0.177292
0.178633
0.180055
0.181578
0.18322
0.184985
0.186837
0.188857
0.191049
0.193421
0.195987
0.198761
0.201759
0.204983
0.208421
0.212028
0.215805
0.219797
0.224095
0.228867
0.23431
0.240668
0.248312
0.257985
0.271707
0.300085
0.328283
0.526284
0.561502
0.562481
0.5625
0.5625
0.5625
0.5625
0.5625
0.5625
0.5625
0.5625
0.5625
0.5625
0.5625
0.5625
0.5625
0.562452
0.562024
0.55521
0.509453
0.408235
0.283076
0.248943
0.24308
0.238577
0.234138
0.229138
0.223937
0.218624
0.213529
0.209238
0.207209
0.0183158
0.0190745
0.0202206
0.0217585
0.0236764
0.0259415
0.028504
0.0312873
0.0342574
0.0374375
0.0407469
0.0443808
0.0482631
0.0522182
0.0562472
0.0605604
0.0652746
0.0705453
0.076605
0.0867062
0.101187
0.122349
0.142699
0.150512
0.157449
0.282031
0.507764
0.545688
0.513854
0.47192
0.192831
0.14552
0.144525
0.147818
0.161616
0.169187
0.209214
0.34254
0.367708
0.21578
0.160679
0.155578
0.151934
0.149216
0.146542
0.143215
0.138787
0.133249
0.12751
0.122757
0.119468
0.117611
0.116952
0.11723
0.11822
0.119744
0.121667
0.123899
0.126387
0.129131
0.132218
0.135734
0.139876
0.145023
0.151964
0.160243
0.165232
0.177941
0.18607
0.166814
0.166396
0.166204
0.167
0.169874
0.177371
0.181377
0.183255
0.184649
0.186852
0.187791
0.188207
0.187658
0.185527
0.183567
0.181989
0.181054
0.180814
0.181113
0.18178
0.182682
0.183732
0.184871
0.186077
0.187363
0.188786
0.190378
0.192151
0.19403
0.196088
0.198329
0.20076
0.203394
0.206253
0.209363
0.212736
0.216342
0.219994
0.223678
0.227436
0.231375
0.235785
0.240895
0.246923
0.254197
0.263523
0.277323
0.310032
0.480792
0.557752
0.562399
0.562498
0.5625
0.5625
0.5625
0.5625
0.5625
0.5625
0.5625
0.5625
0.5625
0.5625
0.5625
0.5625
0.5625
0.562455
0.561579
0.546675
0.480748
0.369131
0.25483
0.248623
0.243324
0.239012
0.234655
0.229711
0.224534
0.219192
0.21409
0.209777
0.207719
0.019703
0.0205843
0.0219402
0.0237924
0.0261292
0.0288853
0.0319525
0.0352273
0.0386653
0.0422697
0.0460167
0.0500302
0.0543007
0.0591573
0.0642161
0.0694778
0.0754489
0.0825144
0.0933814
0.113236
0.133969
0.159275
0.167941
0.251548
0.496208
0.553365
0.561515
0.562265
0.561856
0.561155
0.541405
0.213852
0.159564
0.164317
0.182461
0.39102
0.557476
0.559915
0.559224
0.536509
0.200555
0.162848
0.161313
0.160772
0.159999
0.15817
0.154345
0.14753
0.138768
0.131459
0.126413
0.123416
0.122057
0.121952
0.122788
0.124318
0.126353
0.128757
0.131445
0.134417
0.137698
0.14139
0.145724
0.151259
0.159318
0.168131
0.232565
0.537419
0.549489
0.510039
0.222181
0.174282
0.174289
0.178034
0.186527
0.250081
0.504968
0.475721
0.549493
0.56091
0.517109
0.2422
0.192334
0.190922
0.189462
0.188515
0.188403
0.188874
0.189695
0.190713
0.191828
0.192969
0.194096
0.195237
0.196551
0.198096
0.19987
0.201857
0.203952
0.206217
0.208662
0.211315
0.214223
0.217456
0.221102
0.225168
0.228914
0.232445
0.235818
0.239151
0.243093
0.247851
0.253505
0.260243
0.268973
0.282439
0.317677
0.511973
0.560282
0.562452
0.562499
0.5625
0.5625
0.5625
0.5625
0.5625
0.5625
0.5625
0.5625
0.5625
0.5625
0.5625
0.5625
0.5625
0.562477
0.561961
0.545476
0.490807
0.37971
0.254425
0.248743
0.243776
0.239608
0.235333
0.230357
0.22521
0.21987
0.214734
0.210361
0.208238
0.0210171
0.0220553
0.0236992
0.0260155
0.0289999
0.0325144
0.0363248
0.0402843
0.0443447
0.0485134
0.0528161
0.0573569
0.062215
0.0676705
0.0743613
0.0815938