/*--------------------------------*- C++ -*----------------------------------*\
| =========                 |                                                 |
| \\      /  F ield         | OpenFOAM: The Open Source CFD Toolbox           |
|  \\    /   O peration     | Version:  2.1.0                                 |
|   \\  /    A nd           | Web:      www.OpenFOAM.org                      |
|    \\/     M anipulation  |                                                 |
\*---------------------------------------------------------------------------*/
FoamFile
{
    version     2.0;
    format      ascii;
    class       volScalarField;
    location    "60225";
    object      kr_w;
}
// * * * * * * * * * * * * * * * * * * * * * * * * * * * * * * * * * * * * * //

dimensions      [0 0 0 0 0 0 0];

internalField   nonuniform List<scalar> 
15000
(
0.5625
0.562491
0.56249
0.562486
0.562323
0.561024
0.556399
0.54682
0.532854
0.516335
0.498915
0.481619
0.464967
0.449186
0.43435
0.420457
0.407474
0.395348
0.384022
0.373439
0.363541
0.354274
0.345587
0.337431
0.32976
0.322534
0.315714
0.309264
0.303152
0.297348
0.291826
0.286559
0.281527
0.276708
0.272085
0.26764
0.263359
0.259227
0.255231
0.251359
0.2476
0.243944
0.240381
0.236904
0.233506
0.230183
0.226929
0.223741
0.220615
0.217549
0.214542
0.211592
0.208698
0.205861
0.20308
0.200356
0.197688
0.195077
0.192523
0.190027
0.187588
0.185206
0.182881
0.180611
0.178396
0.176233
0.174123
0.172062
0.170048
0.168081
0.166157
0.164275
0.162434
0.160631
0.158865
0.157133
0.155435
0.153768
0.152132
0.150525
0.148946
0.147395
0.145869
0.144369
0.142894
0.141444
0.140018
0.138616
0.137238
0.135884
0.134554
0.133248
0.131967
0.130711
0.12948
0.128275
0.127096
0.125944
0.12482
0.123724
0.122657
0.121619
0.120612
0.119636
0.118691
0.117779
0.116899
0.116052
0.115238
0.114457
0.113708
0.112991
0.112304
0.111647
0.111018
0.110415
0.109838
0.109285
0.108754
0.108243
0.107746
0.107259
0.106771
0.106271
0.105746
0.105183
0.104576
0.103942
0.103339
0.102842
0.102463
0.102185
0.101984
0.101784
0.101581
0.101375
0.101162
0.100941
0.10071
0.100468
0.10021
0.0999309
0.0996214
0.09927
0.0988597
0.0983647
0.0977418
0.0969066
0.0956522
0.0931602
0.562491
0.562483
0.562484
0.56247
0.562148
0.560208
0.554416
0.543692
0.529051
0.512326
0.494989
0.477908
0.461514
0.445991
0.431395
0.417717
0.404924
0.392965
0.381785
0.371331
0.361547
0.352381
0.343784
0.335709
0.328113
0.320955
0.314198
0.307806
0.301748
0.295994
0.290519
0.285296
0.280306
0.275527
0.270941
0.266533
0.262286
0.258187
0.254223
0.250382
0.246652
0.243023
0.239487
0.236036
0.232663
0.229363
0.226131
0.222964
0.219858
0.21681
0.21382
0.210886
0.208006
0.205182
0.202413
0.199699
0.197041
0.194439
0.191893
0.189404
0.186972
0.184596
0.182277
0.180013
0.177803
0.175647
0.173541
0.171486
0.169477
0.167515
0.165597
0.163721
0.161885
0.160088
0.158327
0.156601
0.154908
0.153247
0.151616
0.150014
0.14844
0.146893
0.145371
0.143876
0.142404
0.140957
0.139534
0.138135
0.136758
0.135406
0.134077
0.132772
0.13149
0.130232
0.128999
0.127791
0.126607
0.125449
0.124317
0.123211
0.122133
0.121082
0.120058
0.119063
0.118096
0.117158
0.116247
0.115364
0.114508
0.113677
0.112871
0.112086
0.111321
0.110574
0.109841
0.109121
0.108413
0.107716
0.10703
0.106353
0.105677
0.104988
0.10426
0.103457
0.102535
0.101443
0.100145
0.0986793
0.0972631
0.0962382
0.0955747
0.0951875
0.0949983
0.0948827
0.0948357
0.0948434
0.0948753
0.0949194
0.094984
0.0950838
0.0952257
0.0953997
0.095585
0.0957526
0.0958694
0.0958976
0.0957874
0.0954526
0.0946868
0.0926729
0.56249
0.562484
0.562484
0.562394
0.561595
0.558353
0.550756
0.538603
0.523301
0.506516
0.48944
0.472743
0.456754
0.441613
0.427359
0.413985
0.401456
0.389727
0.37875
0.368473
0.358846
0.349821
0.34135
0.33339
0.325899
0.318837
0.312169
0.30586
0.29988
0.2942
0.288793
0.283636
0.278707
0.273987
0.269459
0.265104
0.26091
0.256861
0.252945
0.249149
0.245463
0.241875
0.238379
0.234965
0.231628
0.228361
0.225161
0.222022
0.218943
0.21592
0.212953
0.210039
0.207178
0.20437
0.201616
0.198915
0.196268
0.193677
0.19114
0.18866
0.186236
0.183869
0.181557
0.1793
0.177098
0.174949
0.172851
0.170803
0.168803
0.166848
0.164938
0.16307
0.161243
0.159453
0.1577
0.155982
0.154297
0.152643
0.15102
0.149425
0.147857
0.146316
0.144801
0.143311
0.141844
0.140402
0.138982
0.137586
0.136212
0.13486
0.133532
0.132227
0.130944
0.129684
0.128446
0.127232
0.126042
0.124875
0.123733
0.122615
0.121521
0.120452
0.119407
0.118387
0.117391
0.116418
0.115468
0.114537
0.113626
0.11273
0.111847
0.110972
0.1101
0.109227
0.108347
0.107455
0.106547
0.105623
0.104688
0.103746
0.102791
0.101796
0.100713
0.0994684
0.0979651
0.0960865
0.0937339
0.0909165
0.088201
0.0866747
0.0858258
0.0853895
0.0852252
0.0852563
0.0854864
0.0858895
0.0863453
0.0868157
0.0873357
0.0879603
0.0887175
0.0895827
0.0905081
0.0914312
0.092289
0.093023
0.0935731
0.0938503
0.0936498
0.0921569
0.562487
0.562472
0.562398
0.561926
0.559917
0.554554
0.544818
0.531361
0.515668
0.499076
0.482458
0.466298
0.450836
0.436177
0.422351
0.409349
0.397145
0.3857
0.37497
0.364912
0.35548
0.346628
0.338315
0.330499
0.32314
0.316201
0.309647
0.303445
0.297566
0.29198
0.286663
0.281592
0.276744
0.272102
0.267647
0.263364
0.259238
0.255254
0.251401
0.247665
0.244037
0.240504
0.23706
0.233696
0.230405
0.227182
0.224022
0.220922
0.217877
0.214885
0.211946
0.209057
0.206219
0.203431
0.200694
0.198009
0.195376
0.192796
0.190271
0.187801
0.185386
0.183027
0.180724
0.178476
0.176282
0.174142
0.172053
0.170015
0.168024
0.16608
0.164181
0.162323
0.160506
0.158727
0.156984
0.155275
0.1536
0.151956
0.150342
0.148756
0.147197
0.145664
0.144157
0.142673
0.141213
0.139776
0.138361
0.136967
0.135596
0.134247
0.132919
0.131613
0.130328
0.129065
0.127823
0.126602
0.125403
0.124226
0.12307
0.121936
0.120824
0.119733
0.118663
0.117613
0.116581
0.115566
0.114567
0.113579
0.112599
0.111624
0.110645
0.109657
0.108649
0.107611
0.106529
0.105391
0.104183
0.102901
0.10156
0.100205
0.0988502
0.0974578
0.0959468
0.0941975
0.0920513
0.0893132
0.0857923
0.0813172
0.0771415
0.0758212
0.0751489
0.0748062
0.0746739
0.0748281
0.0753316
0.0762208
0.0771321
0.0779863
0.0788937
0.08
0.08139
0.0830113
0.0847802
0.0865878
0.0883208
0.0898835
0.0911951
0.0921595
0.0925727
0.0916228
0.562342
0.562181
0.561652
0.559992
0.55581
0.547916
0.53632
0.522064
0.506392
0.490262
0.474275
0.458772
0.443928
0.429822
0.416482
0.403905
0.39207
0.380947
0.370501
0.360694
0.351485
0.342836
0.334707
0.327059
0.319856
0.313063
0.306646
0.300573
0.294815
0.289345
0.284137
0.27917
0.274422
0.269874
0.26551
0.261314
0.257272
0.253369
0.249593
0.245932
0.242375
0.238911
0.235531
0.232229
0.228996
0.225827
0.222718
0.219663
0.216661
0.213708
0.210802
0.207944
0.205132
0.202367
0.199651
0.196983
0.194365
0.191798
0.189285
0.186825
0.18442
0.18207
0.179777
0.177538
0.175354
0.173224
0.171147
0.16912
0.167141
0.165209
0.163322
0.161477
0.159673
0.157906
0.156176
0.15448
0.152816
0.151184
0.149581
0.148007
0.146458
0.144936
0.143437
0.141962
0.14051
0.139079
0.137669
0.136281
0.134912
0.133565
0.132238
0.130931
0.129644
0.128377
0.127129
0.1259
0.124691
0.123502
0.122331
0.121179
0.120045
0.118929
0.117829
0.116744
0.115671
0.114608
0.113552
0.112497
0.111439
0.110369
0.109278
0.108153
0.106976
0.105727
0.104376
0.102888
0.101228
0.0993681
0.0973535
0.0953971
0.0935583
0.0917676
0.0898915
0.0877582
0.0851571
0.0818352
0.0775291
0.0716292
0.0669588
0.0667877
0.0663412
0.0661402
0.0660151
0.0661337
0.0666671
0.067994
0.0692024
0.0701365
0.0710868
0.0723535
0.0741552
0.076381
0.0789078
0.0815937
0.0842389
0.0866761
0.0887869
0.0904623
0.0914977
0.0910844
0.561191
0.56043
0.558652
0.554904
0.548191
0.538206
0.525516
0.511091
0.495829
0.480377
0.465143
0.450371
0.436196
0.422684
0.409865
0.397743
0.386306
0.375532
0.365394
0.355861
0.346899
0.338473
0.330548
0.323089
0.316063
0.309436
0.303175
0.297251
0.291634
0.286298
0.281218
0.276373
0.27174
0.267304
0.263047
0.258954
0.25501
0.251203
0.24752
0.243947
0.240475
0.237093
0.233791
0.230562
0.2274
0.224296
0.221247
0.218248
0.215296
0.212388
0.209523
0.2067
0.203919
0.201181
0.198486
0.195837
0.193236
0.190683
0.188181
0.185732
0.183337
0.180997
0.178713
0.176485
0.174312
0.172194
0.170129
0.168115
0.16615
0.164233
0.162361
0.160531
0.158741
0.156989
0.155274
0.153592
0.151943
0.150325
0.148736
0.147175
0.145639
0.144129
0.142641
0.141177
0.139733
0.138311
0.136908
0.135524
0.13416
0.132815
0.131488
0.130182
0.128892
0.12762
0.126366
0.125129
0.123909
0.122705
0.121517
0.120345
0.119188
0.118043
0.11691
0.115785
0.114667
0.113551
0.112431
0.111302
0.110155
0.108978
0.107757
0.10647
0.10509
0.103575
0.101871
0.0999013
0.0975729
0.0947893
0.0916493
0.0889514
0.0867073
0.0847077
0.0827246
0.0805361
0.0779103
0.0745923
0.0703279
0.063836
0.0614688
0.0568164
0.052838
0.0490147
0.0471328
0.0490519
0.0542185
0.0650756
0.065826
0.0661367
0.0664876
0.0672062
0.0687755
0.0710271
0.0737958
0.077079
0.0804853
0.0837003
0.0865381
0.0888672
0.0904774
0.0905581
0.55707
0.555185
0.551629
0.545722
0.5371
0.525986
0.513024
0.498946
0.484363
0.469716
0.455294
0.441282
0.427792
0.414889
0.402605
0.390951
0.379925
0.369514
0.359697
0.350452
0.34175
0.333561
0.325856
0.318602
0.311769
0.305324
0.299238
0.29348
0.288023
0.282839
0.277904
0.273197
0.268697
0.264387
0.260251
0.256276
0.252446
0.248749
0.245172
0.241702
0.23833
0.235043
0.231834
0.228692
0.225612
0.222586
0.219609
0.216675
0.213782
0.210928
0.208109
0.205327
0.202581
0.199872
0.197202
0.194574
0.191989
0.18945
0.18696
0.184522
0.182136
0.179806
0.177531
0.175313
0.173152
0.171046
0.168995
0.166996
0.165048
0.163148
0.161292
0.159479
0.157707
0.155973
0.154274
0.15261
0.150978
0.149376
0.147803
0.146257
0.144737
0.143241
0.141767
0.140315
0.138883
0.13747
0.136075
0.134698
0.133338
0.131996
0.130671
0.129363
0.128071
0.126795
0.125534
0.124287
0.123055
0.121837
0.120631
0.119437
0.118253
0.117078
0.115909
0.114742
0.113574
0.1124
0.111212
0.110001
0.108756
0.10746
0.106092
0.104619
0.102997
0.101159
0.09901
0.0964098
0.0931583
0.088965
0.0839743
0.0807119
0.0784356
0.0766072
0.0748908
0.0730491
0.070879
0.068188
0.0648048
0.0584986
0.0445731
0.00252947
0.000133389
3.16194e-06
0.00112652
0.0256053
0.0247409
0.0235652
0.0273835
0.031957
0.0405281
0.050792
0.0657952
0.0676863
0.0699845
0.0735857
0.0775226
0.081283
0.0846501
0.0874843
0.0895626
0.0900593
0.548448
0.545402
0.540357
0.533049
0.523528
0.512174
0.499524
0.486102
0.472333
0.458535
0.444929
0.431668
0.418852
0.406547
0.394791
0.383602
0.372987
0.36294
0.353449
0.344496
0.33606
0.328117
0.32064
0.313601
0.306973
0.300725
0.294829
0.289255
0.283973
0.278959
0.274185
0.269632
0.265279
0.26111
0.257111
0.253266
0.249564
0.245991
0.242535
0.239184
0.235927
0.232752
0.229649
0.22661
0.223626
0.220691
0.217797
0.21494
0.212117
0.209324
0.20656
0.203824
0.201117
0.198441
0.195798
0.193191
0.190623
0.188098
0.185619
0.18319
0.180813
0.178491
0.176225
0.174017
0.171867
0.169775
0.167739
0.165757
0.163827
0.161946
0.160111
0.158318
0.156566
0.154851
0.153172
0.151527
0.149915
0.148332
0.146778
0.145251
0.143748
0.142269
0.140812
0.139374
0.137955
0.136554
0.135169
0.1338
0.132446
0.131107
0.129783
0.128474
0.127181
0.1259
0.124632
0.123376
0.122131
0.120897
0.119672
0.118455
0.117244
0.116036
0.114829
0.113618
0.112397
0.111161
0.109899
0.1086
0.107249
0.105822
0.104289
0.102605
0.100704
0.0984892
0.0958155
0.0924647
0.0880755
0.0819613
0.0741731
0.0711912
0.0694232
0.0681141
0.0669273
0.065688
0.064267
0.0625429
0.0603883
0.0539471
0.0371292
0.0118716
0.000749878
2.69487e-05
1.01443e-05
0.000641056
0.000848439
0.00103183
0.00154721
0.00192373
0.0240529
0.0282278
0.0478526
0.0591555
0.0690662
0.072402
0.0760148
0.0797335
0.0832694
0.0863849
0.088786
0.0895987
0.535754
0.53195
0.52612
0.518281
0.508654
0.497612
0.485578
0.472938
0.460009
0.447039
0.434211
0.421662
0.409486
0.397751
0.3865
0.37576
0.365542
0.35585
0.346678
0.338014
0.329842
0.322144
0.314897
0.30808
0.301665
0.295625
0.289932
0.284556
0.279468
0.274639
0.270043
0.26566
0.261469
0.257454
0.253603
0.249903
0.246342
0.242908
0.239589
0.236373
0.233247
0.230201
0.227222
0.224302
0.22143
0.2186
0.215805
0.213038
0.210295
0.207574
0.204872
0.202189
0.199526
0.196886
0.194272
0.191687
0.189137
0.186625
0.184155
0.181734
0.179363
0.177047
0.174788
0.172589
0.17045
0.168372
0.166352
0.16439
0.16248
0.160621
0.158808
0.157038
0.155309
0.153617
0.15196
0.150337
0.148747
0.147186
0.145654
0.144148
0.142667
0.141208
0.13977
0.13835
0.136947
0.135559
0.134186
0.132826
0.13148
0.130146
0.128825
0.127515
0.12622
0.124936
0.123661
0.122395
0.121137
0.119887
0.118642
0.117401
0.116161
0.114919
0.113672
0.112413
0.111137
0.109835
0.108495
0.107102
0.105635
0.104065
0.10235
0.10043
0.0982189
0.0955875
0.0923483
0.0882115
0.0826435
0.0744331
0.0635619
0.061621
0.0602504
0.0594138
0.058757
0.058255
0.0577897
0.0572438
0.0565234
0.048281
0.0260231
0.00550899
0.000379682
1.45407e-05
5.0645e-07
1.48383e-05
2.53406e-05
3.84647e-05
6.24991e-05
7.18073e-05
0.00162829
0.00198637
0.00649724
0.0562996
0.0688753
0.0719459
0.0752655
0.0788056
0.0823252
0.0855556
0.0881488
0.0891787
0.520641
0.516524
0.510491
0.502689
0.493382
0.4829
0.471579
0.459723
0.447588
0.435382
0.423267
0.411368
0.39978
0.388572
0.377792
0.367471
0.357628
0.348272
0.339402
0.331012
0.323094
0.315633
0.308613
0.302015
0.295816
0.289991
0.284513
0.27935
0.274472
0.269847
0.265447
0.261248
0.257233
0.253386
0.249696
0.246153
0.242746
0.239466
0.2363
0.233237
0.230262
0.227364
0.224529
0.221746
0.219006
0.2163
0.213619
0.210957
0.208309
0.205671
0.203041
0.200419
0.197806
0.195206
0.192623
0.190061
0.187527
0.185025
0.182563
0.180146
0.177778
0.175465
0.173211
0.171018
0.168889
0.166824
0.164822
0.16288
0.160994
0.15916
0.157374
0.15563
0.153927
0.15226
0.150629
0.149031
0.147465
0.145929
0.144422
0.142941
0.141485
0.14005
0.138635
0.137236
0.135852
0.134482
0.133123
0.131775
0.130437
0.129109
0.127791
0.126483
0.125186
0.123898
0.122616
0.121341
0.12007
0.118803
0.117537
0.116271
0.115001
0.113724
0.112434
0.111125
0.10979
0.108418
0.106994
0.1055
0.103908
0.102182
0.100269
0.098093
0.0955493
0.0924877
0.0886941
0.0838427
0.0772954
0.0675727
0.0561721
0.0428204
0.0341966
0.0257708
0.0147758
0.00597857
0.0055254
0.0116192
0.0329588
0.0306622
0.0116379
0.000681508
3.3693e-05
1.2482e-06
3.65897e-08
3.53148e-07
7.37984e-07
1.32535e-06
2.14145e-06
2.36762e-06
6.20543e-05
8.24625e-05
0.000482655
0.065755
0.0689301
0.0717041
0.0749463
0.0782661
0.0816909
0.08494
0.0876304
0.0887952
0.50468
0.500537
0.494617
0.487113
0.478283
0.46841
0.457777
0.446636
0.435207
0.423674
0.412186
0.400863
0.389798
0.379063
0.368707
0.358767
0.349265
0.340215
0.331622
0.323485
0.3158
0.308558
0.30175
0.295361
0.289374
0.283767
0.278513
0.273579
0.26893
0.264529
0.260343
0.256347
0.252522
0.248854
0.245336
0.24196
0.238722
0.235612
0.232619
0.22973
0.22693
0.224202
0.221535
0.218913
0.216327
0.213765
0.21122
0.208683
0.206147
0.203607
0.201061
0.198509
0.195953
0.193396
0.190846
0.188307
0.185788
0.183295
0.180836
0.178419
0.176049
0.173734
0.171479
0.169289
0.167159
0.165096
0.163106
0.161188
0.159331
0.157527
0.155771
0.154059
0.152385
0.150747
0.149143
0.147573
0.146035
0.144528
0.143051
0.1416
0.140174
0.138769
0.137383
0.136011
0.134652
0.133303
0.131962
0.130629
0.129303
0.127984
0.126671
0.125365
0.124065
0.122775
0.121487
0.120202
0.118918
0.117634
0.116347
0.115054
0.113753
0.112438
0.111104
0.109743
0.108346
0.1069
0.105387
0.103783
0.102056
0.10016
0.0980322
0.0955866
0.0927052
0.0892276
0.0849315
0.0794771
0.0721328
0.0612613
0.0509912
0.0276447
0.00685063
0.000204588
2.44628e-06
2.23996e-05
0.000498661
0.000804831
0.000374971
0.00305646
0.00108278
7.87919e-05
3.50402e-06
1.17006e-07
3.17591e-09
8.9432e-09
2.28587e-08
4.62555e-08
6.62562e-08
6.28466e-08
1.48278e-06
1.61855e-06
0.00639061
0.0660921
0.0689133
0.0715156
0.0746602
0.0779106
0.081245
0.0844727
0.0872016
0.0884405
0.488882
0.484846
0.479162
0.472025
0.463673
0.454358
0.444321
0.433786
0.42295
0.411983
0.401025
0.390193
0.379578
0.369252
0.359267
0.349661
0.340458
0.331676
0.323323
0.315404
0.307919
0.300866
0.294243
0.288041
0.282252
0.276857
0.271833
0.267144
0.262748
0.258598
0.254652
0.250879
0.247258
0.24378
0.240442
0.237246
0.23419
0.231269
0.228472
0.225783
0.223185
0.220658
0.218187
0.215755
0.213351
0.210962
0.208579
0.20619
0.203788
0.201366
0.198919
0.196449
0.193958
0.191451
0.188935
0.18642
0.183913
0.181425
0.178964
0.176541
0.174162
0.171837
0.169574
0.167357
0.16521
0.163141
0.161156
0.159256
0.157431
0.155665
0.153948
0.152272
0.150634
0.14903
0.14746
0.145922
0.144417
0.142945
0.141503
0.140089
0.138701
0.137333
0.135983
0.134646
0.133318
0.131996
0.130679
0.129365
0.128055
0.126747
0.125442
0.12414
0.12284
0.121549
0.120258
0.118964
0.117668
0.116366
0.115057
0.113738
0.112404
0.11105
0.109669
0.108253
0.106789
0.105263
0.103652
0.101928
0.100053
0.097974
0.0956222
0.0929051
0.0897018
0.0858524
0.0811366
0.0752015
0.0671766
0.0553027
0.0473476
0.0137834
0.000218663
2.51441e-06
2.97032e-08
4.39119e-08
5.81694e-06
1.72763e-05
1.55196e-05
0.000154073
6.67433e-05
4.16253e-06
1.81092e-07
6.25927e-09
1.85563e-10
2.38344e-10
8.15605e-10
1.81294e-09
1.87308e-09
1.40017e-09
2.40687e-08
0.000297402
0.0314253
0.0660356
0.0688117
0.0713521
0.0744036
0.077605
0.0809091
0.0841022
0.0868352
0.0881064
0.473783
0.469895
0.464457
0.457657
0.449712
0.440848
0.431285
0.421227
0.410859
0.40034
0.389809
0.379376
0.369133
0.359147
0.349472
0.340144
0.33119
0.322628
0.314467
0.306717
0.299383
0.292471
0.285985
0.279928
0.274302
0.2691
0.264305
0.25988
0.255769
0.251909
0.248239
0.244717
0.241319
0.238042
0.234893
0.231886
0.229027
0.226315
0.223742
0.221287
0.218929
0.216642
0.214405
0.212201
0.210015
0.207836
0.205649
0.203443
0.201205
0.198925
0.1966
0.194227
0.191812
0.18936
0.186883
0.18439
0.181893
0.179405
0.176936
0.174497
0.172099
0.169752
0.167436
0.165183
0.163006
0.16092
0.158934
0.157052
0.155268
0.153547
0.151878
0.150248
0.148651
0.147086
0.145551
0.14405
0.142582
0.141149
0.139749
0.138379
0.137036
0.135715
0.134411
0.133117
0.131829
0.130543
0.129255
0.127966
0.126675
0.125382
0.124088
0.122792
0.121496
0.120199
0.118905
0.117606
0.116298
0.114981
0.11365
0.112303
0.110935
0.109539
0.108107
0.106629
0.105091
0.103473
0.101752
0.0998954
0.0978602
0.0955911
0.0930167
0.0900462
0.0865636
0.0824177
0.0773932
0.0711094
0.0624607
0.0493826
0.0439609
0.00481789
0.000153639
3.38195e-06
5.08383e-08
7.61022e-10
6.4614e-08
2.9346e-07
4.28283e-07
4.77143e-06
2.12523e-06
1.37091e-07
6.06374e-09
2.19728e-10
7.25005e-12
6.02561e-12
3.75161e-11
2.59557e-10
6.6511e-09
3.8007e-07
2.72327e-05
0.00201763
0.0416641
0.0659361
0.0686959
0.0712113
0.0741973
0.0773399
0.0806032
0.0837841
0.08651
0.0877858
0.459631
0.455884
0.450651
0.444109
0.436462
0.42792
0.418691
0.40897
0.398935
0.388744
0.37853
0.368402
0.358445
0.348727
0.339296
0.330186
0.32142
0.313016
0.304985
0.297337
0.290082
0.283233
0.276804
0.270814
0.265175
0.259996
0.255414
0.251277
0.247511
0.244015
0.240693
0.237481
0.234349
0.231299
0.228357
0.225554
0.222917
0.220453
0.218153
0.215992
0.213939
0.211958
0.210018
0.208101
0.206191
0.204276
0.20234
0.200367
0.198339
0.196242
0.194068
0.191817
0.189493
0.187107
0.184672
0.182202
0.179712
0.177217
0.17473
0.172264
0.169832
0.167423
0.165043
0.16272
0.160474
0.158331
0.156317
0.154448
0.152717
0.151059
0.149453
0.147882
0.146337
0.144816
0.143323
0.141862
0.140437
0.13905
0.137701
0.136387
0.135103
0.133844
0.132602
0.131368
0.130134
0.128894
0.127647
0.126391
0.125126
0.123854
0.122575
0.12129
0.12
0.118705
0.117412
0.116107
0.114788
0.113453
0.112098
0.11072
0.109311
0.107865
0.106373
0.104822
0.103195
0.101473
0.0996283
0.0976276
0.0954274
0.0929733
0.0901976
0.0870168
0.0833259
0.0789865
0.0737895
0.0673245
0.0582253
0.0443194
0.0211532
0.00259625
6.07614e-05
1.08881e-06
1.53214e-08
1.7646e-10
6.38437e-10
3.95458e-09
8.24393e-09
9.81323e-08
4.30531e-08
3.02526e-09
1.38878e-10
5.14321e-12
1.69284e-13
6.91741e-14
1.21674e-12
1.84143e-10
1.72116e-08
9.75307e-07
4.87278e-05
0.00199993
0.0500134
0.065921
0.0686224
0.0711045
0.0740272
0.0771138
0.0803323
0.0834839
0.086195
0.0874702
0.446522
0.442886
0.43779
0.431406
0.42393
0.415567
0.40652
0.396986
0.387145
0.377154
0.367145
0.357223
0.347469
0.337942
0.328684
0.319722
0.311075
0.302755
0.29477
0.287129
0.279845
0.272936
0.266251
0.259495
0.252949
0.24688
0.241702
0.238014
0.234879
0.232112
0.229501
0.226916
0.224299
0.221658
0.219056
0.216579
0.214299
0.212244
0.210407
0.208754
0.207229
0.205768
0.204323
0.202869
0.201394
0.199888
0.198336
0.196715
0.195001
0.193171
0.191216
0.189135
0.186938
0.184639
0.182258
0.179816
0.177332
0.174824
0.172309
0.169802
0.167316
0.164806
0.162313
0.159852
0.157449
0.155151
0.153029
0.151148
0.149489
0.147926
0.146418
0.144934
0.143462
0.142
0.140557
0.139145
0.137773
0.136445
0.135163
0.133925
0.132725
0.131556
0.130406
0.129261
0.128109
0.126941
0.125753
0.124546
0.12332
0.122079
0.120824
0.119557
0.11828
0.116991
0.115695
0.11439
0.113063
0.11171
0.110329
0.108913
0.107456
0.10595
0.104384
0.102745
0.101016
0.0991759
0.0971993
0.0950539
0.0926995
0.0900872
0.0871569
0.0838355
0.0800302
0.0756141
0.070383
0.0638995
0.0545661
0.0408135
0.0118099
0.00161538
3.88898e-05
7.06213e-07
1.02354e-08
1.23691e-10
6.7397e-12
4.26853e-11
1.15843e-10
1.42944e-09
6.15225e-10
4.71916e-11
2.26164e-12
8.45387e-14
1.29864e-15
0
2.31469e-14
3.15465e-11
3.38012e-08
1.11047e-06
3.63956e-05
0.000917596
0.0627816
0.0661236
0.0686153
0.0710268
0.0738775
0.0769074
0.0800794
0.083196
0.0858835
0.0871551
0.434478
0.430908
0.42587
0.419532
0.412087
0.403743
0.394713
0.385204
0.375406
0.365484
0.355566
0.345753
0.336116
0.326703
0.317544
0.308655
0.300043
0.291711
0.283659
0.275889
0.268408
0.260896
0.252828
0.244506
0.235868
0.227492
0.219981
0.21625
0.214164
0.212801
0.211589
0.210222
0.208548
0.20657
0.204434
0.202369
0.200591
0.199177
0.198131
0.1974
0.196874
0.196403
0.195885
0.19528
0.194588
0.19381
0.192936
0.191933
0.190762
0.189388
0.187798
0.185996
0.184
0.181839
0.179545
0.177147
0.174675
0.172153
0.1696
0.167034
0.164441
0.16179
0.159101
0.156379
0.15364
0.150955
0.148503
0.14654
0.144995
0.143598
0.142262
0.14093
0.139574
0.138196
0.136818
0.135468
0.134165
0.132918
0.131732
0.130606
0.129538
0.128515
0.127519
0.126525
0.12551
0.124461
0.123373
0.122246
0.121085
0.119895
0.11868
0.117446
0.116193
0.114922
0.113631
0.112333
0.111001
0.109631
0.108218
0.106759
0.105245
0.103668
0.102018
0.100279
0.0984384
0.096477
0.0943738
0.0921024
0.0896296
0.0869136
0.0839028
0.0805325
0.0767188
0.0723412
0.0671954
0.0608174
0.0513786
0.0383733
0.00605067
0.00040374
1.06559e-05
1.94831e-07
2.85088e-09
3.55069e-11
4.33048e-13
3.80388e-13
1.2408e-12
1.55361e-11
6.57005e-12
5.44569e-13
2.70556e-14
3.17516e-18
0
0
0
4.96787e-12
6.56736e-08
3.00773e-06
0.000108244
0.00325799
0.0631917
0.0661879
0.0685659
0.070932
0.0737226
0.0767018
0.0798298
0.0829111
0.0855726
0.0868399
0.423466
0.419904
0.414834
0.40843
0.400898
0.392428
0.383168
0.373499
0.363583
0.353592
0.343653
0.333855
0.324253
0.314877
0.305738
0.296834
0.288155
0.279686
0.271407
0.2633
0.255144
0.24562
0.234958
0.223227
0.210249
0.198296
0.18622
0.182215
0.181668
0.18292
0.184266
0.185072
0.184944
0.183813
0.18177
0.178647
0.177355
0.176812
0.177031
0.177953
0.17937
0.180848
0.182116
0.183106
0.183857
0.184421
0.184806
0.184965
0.184816
0.184293
0.183372
0.18207
0.180431
0.178513
0.17637
0.174057
0.171617
0.169085
0.166487
0.163841
0.161086
0.158223
0.155224
0.152052
0.148677
0.145154
0.141884
0.139769
0.138416
0.137346
0.136341
0.13529
0.134131
0.132866
0.13155
0.130262
0.129038
0.127892
0.126834
0.12587
0.125
0.124216
0.123485
0.122752
0.121978
0.121136
0.120216
0.119224
0.118168
0.117063
0.115918
0.114739
0.113532
0.112296
0.111028
0.109733
0.10841
0.107031
0.105594
0.104093
0.102521
0.10087
0.0991309
0.0972921
0.095343
0.0932731
0.0910708
0.0887193
0.0861932
0.0834569
0.0804623
0.0771476
0.073431
0.0691922
0.0642205
0.058018
0.0484817
0.0366612
0.00319482
5.6325e-05
9.87742e-07
1.62158e-08
2.33355e-10
2.96832e-12
3.42664e-14
1.24784e-15
9.45881e-15
1.31512e-13
5.46033e-14
3.65779e-15
0
0
0
0
0
1.70249e-09
7.94798e-08
5.19181e-06
0.000357168
0.0204933
0.0631481
0.0661128
0.0684533
0.0707984
0.073544
0.0764813
0.0795714
0.0826218
0.0852604
0.0865241
0.413417
0.409768
0.404533
0.397894
0.390079
0.381323
0.371805
0.361932
0.351889
0.341349
0.331196
0.321323
0.311682
0.302268
0.293065
0.284045
0.275167
0.266386
0.257642
0.248865
0.238049
0.224891
0.209134
0.193305
0.175971
0.164104
0.150397
0.148002
0.148314
0.152298
0.156044
0.158827
0.159938
0.158995
0.154477
0.147985
0.145339
0.145165
0.14641
0.149186
0.153377
0.157766
0.161616
0.164828
0.167595
0.170117
0.172468
0.174562
0.176186
0.177159
0.177411
0.176977
0.175948
0.174437
0.172551
0.170383
0.168007
0.165477
0.16283
0.160083
0.157145
0.153997
0.150571
0.146755
0.142392
0.13746
0.132716
0.130664
0.129627
0.129167
0.12872
0.128116
0.127225
0.126038
0.124453
0.123025
0.121856
0.120809
0.119889
0.119117
0.118513
0.118088
0.117798
0.117507
0.117137
0.116634
0.115982
0.115197
0.114301
0.113323
0.112282
0.111193
0.110061
0.108888
0.107668
0.106395
0.105102
0.103731
0.10228
0.100746
0.0991246
0.0974095
0.095593
0.0936689
0.0916343
0.0894909
0.0872435
0.0848868
0.082401
0.0797509
0.0768821
0.073727
0.0702004
0.0661786
0.0614373
0.0554201
0.045612
0.0353687
0.00256112
5.62322e-05
9.88792e-07
1.51688e-08
2.04274e-10
2.44602e-12
2.62967e-14
0
0
3.17516e-18
0
0
0
0
0
0
0
1.48538e-07
2.09816e-06
0.000143666
0.0040705
0.0371949
0.0630404
0.0659801
0.068295
0.0706231
0.0733315
0.0762342
0.0792943
0.0823219
0.0849454
0.0862078
0.404282
0.400443
0.39489
0.387817
0.379483
0.370185
0.360192
0.349925
0.339574
0.32898
0.318721
0.307896
0.29813
0.288603
0.279242
0.269975
0.260715
0.251359
0.241766
0.230511
0.21555
0.195693
0.17409
0.158756
0.141971
0.136888
0.132511
0.114614
0.110531
0.141169
0.143257
0.145049
0.145503
0.143524
0.135871
0.125748
0.122928
0.121113
0.121457
0.123767
0.129161
0.135292
0.140485
0.144718
0.148532
0.152401
0.156551
0.160866
0.164828
0.167904
0.169844
0.170656
0.170495
0.169554
0.168021
0.16605
0.163761
0.161238
0.158533
0.155663
0.152524
0.149074
0.145192
0.140673
0.135158
0.128637
0.122693
0.121246
0.12056
0.12096
0.121116
0.120985
0.120305
0.118967
0.116025
0.114179
0.112878
0.111868
0.111018
0.11037
0.109994
0.109983
0.110346
0.110703
0.110924
0.110901
0.110608
0.110082
0.10938
0.108553
0.10764
0.106667
0.105645
0.10457
0.10343
0.102215
0.100922
0.0995836
0.0981415
0.0965986
0.094954
0.0932044
0.0913457
0.0893757
0.0872994
0.0851343
0.0829147
0.080646
0.0783091
0.0758613
0.0732237
0.0703152
0.0670488
0.0633018
0.0588286
0.0529626
0.0424054
0.0336997
0.00248733
6.11757e-05
1.14441e-06
1.78078e-08
2.38452e-10
2.81615e-12
2.98624e-14
0
0
0
0
0
0
0
0
0
2.94014e-06
2.91034e-05
0.000455778
0.00385608
0.0161918
0.0484935
0.063001
0.0658456
0.0681078
0.0704056
0.0730766
0.0759499
0.0789894
0.0820061
0.0846265
0.0858916
0.396002
0.391859
0.385805
0.378041
0.368879
0.358719
0.347983
0.337116
0.326312
0.315533
0.30507
0.294354
0.283685
0.273542
0.263869
0.254165
0.244239
0.233873
0.222776
0.205917
0.184622
0.158145
0.136632
0.129209
0.122959
0.0488903
0.00400189
0.00108354
0.00348356
0.00750917
0.0953611
0.133902
0.134859
0.13172
0.119349
0.113054
0.0846413
0.0298733
0.0239299
0.0806607
0.120151
0.124614
0.127902
0.130411
0.132928
0.136128
0.140512
0.146205
0.152363
0.157679
0.161477
0.163667
0.164453
0.16412
0.162945
0.161154
0.158926
0.156384
0.153602
0.150596
0.147291
0.143621
0.139421
0.13438
0.127874
0.120527
0.116301
0.106172
0.100136
0.114992
0.115336
0.115495
0.114839
0.112499
0.106607
0.10358
0.102189
0.101167
0.0995729
0.0988996
0.0986036
0.0989947
0.100529
0.101959
0.103125
0.103821
0.104001
0.103777
0.10328
0.102611
0.101839
0.101006
0.100131
0.0992058
0.098192
0.0970684
0.0958314
0.0945362
0.0931362
0.0916328
0.0900278
0.0883173
0.0864937
0.0845495
0.0824847
0.0803284
0.0781954
0.076096
0.0740061
0.0718704
0.0695454
0.0669348
0.0639685
0.0605455
0.0563963
0.0507127
0.039149
0.0065628
0.000294494
6.16545e-06
1.06075e-07
1.54832e-09
1.96833e-11
2.23243e-13
1.15258e-15
0
0
0
0
0
0
0
0
0
2.73667e-06
5.64419e-05
0.00101667
0.00656737
0.0236221
0.0602558
0.0631533
0.0657249
0.0678867
0.0701344
0.0727657
0.0756154
0.0786597
0.081669
0.0842937
0.0855722
0.38851
0.383933
0.377149
0.368342
0.357907
0.346448
0.334629
0.322943
0.311566
0.300487
0.289766
0.279069
0.268464
0.257253
0.24641
0.235915
0.224831
0.212687
0.195725
0.168962
0.14545
0.121363
0.114067
0.0617727
0.00504399
0.000574463
6.03736e-05
1.43481e-05
3.94273e-05
8.25125e-05
0.00137851
0.0818117
0.121113
0.117066
0.102775
0.0192307
0.000311876
0.000159221
0.000202253
0.00172581
0.0901619
0.118302
0.119608
0.120072
0.120737
0.122326
0.125717
0.131992
0.140532
0.148097
0.153572
0.15693
0.158479
0.158598
0.157643
0.155911
0.153638
0.151002
0.148112
0.144984
0.141613
0.137918
0.133708
0.12852
0.121327
0.113912
0.0712365
0.00166039
0.000828409
0.00380582
0.0769431
0.108998
0.108992
0.106101
0.0998063
0.0624616
0.00424683
0.00709697
0.000828123
9.7613e-05
0.00321483
0.0662823
0.0957044
0.0966874
0.0977137
0.0983844
0.0984641
0.0981297
0.0975491
0.0968335
0.0960555
0.0952656
0.0944912
0.0937125
0.0928241
0.0917886
0.0906121
0.089312
0.0879585
0.0865164
0.0849843
0.0833492
0.0815895
0.0796721
0.0775587
0.0752609
0.0731984
0.0713001
0.0695279
0.0678157
0.0658394
0.0635223
0.0608643
0.0578259
0.0540886
0.0487348
0.0367867
0.00364143
0.00013644
2.91677e-06
4.82569e-08
6.50037e-10
7.45297e-12
7.52609e-14
3.17516e-18
0
0
0
0
0
0
0
0
0
1.37875e-06
3.3018e-05
0.00109791
0.00555871
0.0214213
0.060441
0.063096
0.0655021
0.067584
0.0697803
0.0724173
0.0752373
0.078267
0.0812837
0.0839336
0.0852478
0.381735
0.376587
0.368773
0.358398
0.34599
0.332559
0.319218
0.30649
0.294456
0.283023
0.272066
0.261311
0.250605
0.239437
0.22679
0.214216
0.201012
0.185424
0.1518
0.118508
0.104155