/*--------------------------------*- C++ -*----------------------------------*\
| =========                 |                                                 |
| \\      /  F ield         | OpenFOAM: The Open Source CFD Toolbox           |
|  \\    /   O peration     | Version:  2.1.0                                 |
|   \\  /    A nd           | Web:      www.OpenFOAM.org                      |
|    \\/     M anipulation  |                                                 |
\*---------------------------------------------------------------------------*/
FoamFile
{
    version     2.0;
    format      ascii;
    class       surfaceScalarField;
    location    "60225";
    object      phi_w;
}
// * * * * * * * * * * * * * * * * * * * * * * * * * * * * * * * * * * * * * //

dimensions      [1 -2 -2 0 0 0 0];

internalField   nonuniform List<scalar> 
29750
(
18.5942
18.6161
11.2295
7.36505
7.76157
3.46793
5.86103
1.9006
4.69134
1.17139
3.91551
0.786637
3.38411
0.563767
3.01675
0.426285
2.75859
0.336664
2.57159
0.274542
2.43172
0.228811
2.32465
0.193439
2.24181
0.165061
2.17775
0.141694
2.12886
0.122091
2.0925
0.105432
2.0667
0.0911522
2.04985
0.0788504
2.04062
0.0682328
2.03786
0.059081
2.04055
0.0512269
2.04777
0.0445371
2.05867
0.0389011
2.07249
0.0342219
2.08851
0.0304104
2.1061
0.0273817
2.12467
0.0250525
2.14372
0.0233405
2.16281
0.0221671
2.18156
0.0214592
2.19964
0.0211498
2.21679
0.0211819
2.23277
0.0215079
2.24738
0.0220869
2.26045
0.0228855
2.27185
0.0238709
2.28146
0.0250105
2.28921
0.0262689
2.29504
0.0276071
2.29897
0.0289804
2.30105
0.0303398
2.30138
0.0316349
2.30009
0.032814
2.2974
0.0338267
2.29353
0.0346252
2.28875
0.035168
2.28338
0.0354203
2.27774
0.0353559
2.27219
0.0349581
2.26706
0.0342218
2.26271
0.0331537
2.25946
0.0317723
2.25761
0.0301069
2.25739
0.0281966
2.25903
0.0260901
2.26268
0.0238429
2.26841
0.021515
2.27625
0.0191687
2.28618
0.0168662
2.29809
0.014667
2.31183
0.0126259
2.32721
0.0107895
2.34399
0.00919614
2.3619
0.00787161
2.38067
0.00682926
2.40002
0.00606947
2.41969
0.00557902
2.43944
0.00533546
2.45906
0.00530763
2.47837
0.00545983
2.49724
0.00575455
2.51557
0.00615518
2.53328
0.00662917
2.55032
0.00714859
2.5667
0.00768907
2.5824
0.00822918
2.59745
0.00874873
2.61191
0.00922657
2.62583
0.00963964
2.63931
0.00996333
2.65247
0.0101705
2.66546
0.0102324
2.67845
0.0101213
2.69165
0.00980978
2.70527
0.00927285
2.71957
0.00848938
2.73483
0.00744114
2.75131
0.00611299
2.76932
0.00449203
2.78916
0.00256553
2.81115
0.000320561
2.83563
-0.0022585
2.86296
-0.00519176
2.89351
-0.00850439
2.9277
-0.0122286
2.96598
-0.0164046
3.00887
-0.0210826
3.05692
-0.0263242
3.11078
-0.0322037
3.17117
-0.0388096
3.23893
-0.0462464
3.31502
-0.0546355
3.40052
-0.0641155
3.49669
-0.0748424
3.60495
-0.0869872
3.7269
-0.100731
3.86432
-0.116257
4.01916
-0.133731
4.19351
-0.153277
4.38947
-0.174935
4.60906
-0.198603
4.85396
-0.223956
5.12523
-0.250353
5.42287
-0.276754
5.74542
-0.301693
6.08966
-0.323404
6.45071
-0.340238
6.82294
-0.35144
7.20195
-0.358235
7.5874
-0.364691
7.98569
-0.377532
8.41095
-0.404511
8.88413
-0.452422
9.42996
-0.525052
10.0712
-0.620376
10.8182
-0.726137
11.6535
-0.814264
12.5137
-0.838927
13.2868
-0.751752
13.8601
-0.55199
14.218
-0.336781
14.3858
-0.146826
14.3874
0.0190974
14.2322
0.176006
13.9228
0.330163
13.4819
0.461607
12.9718
0.530817
12.4156
0.576895
11.7901
0.646231
11.0531
0.75763
10.1763
0.897491
9.16585
1.03112
8.05085
1.13565
6.87423
1.19726
5.67781
1.21705
4.49175
1.20666
3.33172
1.18063
2.20094
1.15137
1.09391
1.12761
1.11456
7.34316
11.2732
7.33235
7.37609
6.19425
4.60606
5.13182
2.96327
4.30658
1.99993
3.69264
1.41658
3.24663
1.05015
2.92713
0.811863
2.69647
0.650142
2.52586
0.534574
2.39634
0.447726
2.29628
0.379679
2.21844
0.324641
2.15815
0.27907
2.1122
0.240692
2.07822
0.207979
2.05439
0.179872
2.03923
0.155611
2.03147
0.134641
2.03001
0.116547
2.03386
0.101009
2.04213
0.0877713
2.054
0.0766228
2.06868
0.0673769
2.08548
0.0598596
2.10377
0.0539035
2.12296
0.049342
2.14255
0.0460113
2.1621
0.0437511
2.18125
0.0424129
2.19968
0.0418632
2.21711
0.0419858
2.23335
0.0426873
2.24818
0.0438889
2.26144
0.0455246
2.27299
0.0475337
2.28272
0.049855
2.29054
0.0524193
2.29642
0.0551467
2.30033
0.057948
2.30235
0.0607242
2.30255
0.0633721
2.30111
0.0657853
2.2982
0.0678608
2.29407
0.0695028
2.289
0.0706256
2.28332
0.0711577
2.27734
0.0710458
2.27145
0.0702566
2.26599
0.0687792
2.26133
0.0666261
2.2578
0.0638342
2.2557
0.0604638
2.25529
0.0565958
2.25679
0.0523285
2.26035
0.047775
2.26606
0.0430578
2.27395
0.0383035
2.28398
0.0336389
2.29605
0.0291854
2.31
0.0250551
2.32562
0.021345
2.34266
0.0181318
2.36085
0.0154697
2.37991
0.0133848
2.39953
0.011878
2.41945
0.010922
2.43941
0.0104676
2.45921
0.0104492
2.47867
0.0107907
2.49765
0.0114146
2.51604
0.0122471
2.53379
0.0132226
2.55086
0.0142855
2.56724
0.0153888
2.58292
0.0164911
2.59793
0.0175525
2.61232
0.0185323
2.62615
0.0193848
2.63952
0.0200598
2.65254
0.020503
2.66535
0.0206561
2.67814
0.020461
2.69111
0.019863
2.70449
0.0188116
2.71853
0.0172636
2.7335
0.0151834
2.74969
0.0125411
2.76739
0.00931202
2.78691
0.00547262
2.80857
0.00099772
2.8327
-0.0041418
2.85965
-0.00998338
2.88978
-0.0165758
2.92352
-0.0239819
2.96131
-0.0322813
3.00363
-0.0415729
3.05104
-0.0519786
3.10417
-0.0636458
3.16373
-0.0767508
3.23054
-0.0915012
3.30554
-0.108139
3.3898
-0.126941
3.48455
-0.148221
3.59121
-0.172327
3.71137
-0.19963
3.84685
-0.230513
3.99962
-0.265333
4.17185
-0.304381
4.3658
-0.347796
4.58371
-0.395452
4.82757
-0.446791
5.09883
-0.500618
5.39793
-0.554878
5.72371
-0.606509
6.07283
-0.651574
6.43951
-0.685977
6.81615
-0.707137
7.1955
-0.716634
7.57456
-0.722795
7.95871
-0.740689
8.36304
-0.787803
8.8115
-0.879761
9.33463
-1.02691
9.9654
-1.22959
10.7301
-1.46878
11.6289
-1.69018
12.6009
-1.78692
13.4866
-1.61266
14.0753
-1.11666
14.408
-0.646361
14.5517
-0.268344
14.5444
0.0480418
14.3863
0.355724
14.0542
0.684112
13.5511
0.986588
13.0179
1.0859
12.4849
1.13164
11.9015
1.25147
11.193
1.48784
10.3099
1.80222
9.27038
2.09227
8.11246
2.31503
6.89401
2.43702
5.66743
2.46478
4.46572
2.42937
3.30246
2.36474
2.17718
2.29739
1.08086
2.24458
2.21606
3.44602
7.82725
4.56231
6.25983
4.55146
4.61692
4.16848
3.3474
3.72323
2.45304
3.32621
1.83979
3.00835
1.42055
2.76541
1.12986
2.5809
0.921981
2.43901
0.767308
2.3283
0.647686
2.24124
0.552109
2.17287
0.473759
2.11977
0.408262
2.07949
0.352711
2.05012
0.305103
2.03013
0.264022
2.01826
0.228444
2.01337
0.197614
2.01447
0.170963
2.02062
0.148051
2.03099
0.128527
2.04475
0.112094
2.06116
0.098491
2.07953
0.0874677
2.09921
0.0787782
2.11963
0.0721735
2.14029
0.0674045
2.16077
0.0642267
2.1807
0.0624101
2.1998
0.0617495
2.21782
0.0620732
2.23455
0.0632403
2.24981
0.0651409
2.26345
0.0676852
2.27531
0.0707915
2.28529
0.0743734
2.29327
0.0783317
2.29922
0.0825484
2.30311
0.0868864
2.30499
0.0911936
2.30497
0.0953079
2.30318
0.0990656
2.29984
0.102307
2.29519
0.104882
2.28954
0.106659
2.2832
0.107527
2.27656
0.107404
2.26997
0.106237
2.26384
0.104006
2.25854
0.100733
2.25443
0.0964713
2.25183
0.0913153
2.25102
0.08539
2.25223
0.0788491
2.25563
0.0718671
2.26131
0.0646331
2.26929
0.0573434
2.27953
0.0501947
2.29192
0.0433756
2.30629
0.0370594
2.32241
0.0313982
2.34
0.0265124
2.35877
0.0224862
2.3784
0.0193608
2.39857
0.017134
2.41899
0.0157618
2.4394
0.0151624
2.45955
0.0152287
2.47929
0.0158379
2.49848
0.0168654
2.51702
0.0181955
2.53486
0.019729
2.55197
0.0213836
2.56834
0.0230922
2.58398
0.0247969
2.59891
0.0264423
2.61317
0.0279699
2.62683
0.0293134
2.63996
0.0303962
2.65269
0.031134
2.66516
0.0314371
2.67754
0.0312151
2.69006
0.0303818
2.70294
0.0288603
2.71645
0.026585
2.73086
0.0235032
2.74646
0.0195729
2.76355
0.0147597
2.78244
0.00903251
2.80343
0.00235868
2.82686
-0.00530224
2.85305
-0.0140022
2.88238
-0.0238102
2.91522
-0.034817
2.95201
-0.0471384
2.99322
-0.0609202
3.03937
-0.0763418
3.09106
-0.0936209
3.14898
-0.113017
3.21391
-0.134839
3.28674
-0.159446
3.36852
-0.187254
3.46044
-0.218739
3.5639
-0.254431
3.68049
-0.294911
3.81203
-0.340786
3.96057
-0.392662
4.12844
-0.451068
4.31815
-0.516361
4.53237
-0.588555
4.77374
-0.667069
5.04457
-0.750372
5.3463
-0.835538
5.67864
-0.917781
6.03842
-0.990267
6.41835
-1.04478
6.80665
-1.07426
7.18933
-1.07807
7.55667
-1.06879
7.9116
-1.07416
8.27108
-1.12567
8.66434
-1.25115
9.13196
-1.4722
9.72621
-1.80072
10.5087
-2.22673
11.5321
-2.68663
12.7751
-2.99893
13.9826
-2.78658
14.5456
-1.65097
14.786
-0.860902
14.8681
-0.326395
14.852
0.0871916
14.7147
0.51672
14.3567
1.06641
13.6504
1.71749
13.0636
1.69723
12.6048
1.61476
12.1378
1.74254
11.5074
2.1424
10.6
2.73357
9.49314
3.22281
8.23445
3.59696
6.92178
3.77239
5.63202
3.77672
4.40109
3.68199
3.23511
3.55203
2.12438
3.42911
1.05234
3.33738
3.28906
1.87861
5.9487
2.9194
5.21924
3.28194
4.25549
3.27412
3.36075
3.10998
2.63619
2.90697
2.08526
2.71766
1.67686
2.55752
1.37362
2.42623
1.144
2.31939
0.965381
2.23272
0.822651
2.16289
0.705897
2.10737
0.608542
2.06422
0.526124
2.03188
0.455544
2.00903
0.394602
1.99456
0.341707
1.98743
0.295686
1.98672
0.255666
1.99156
0.220984
2.0011
0.191123
2.01455
0.16567
2.03115
0.144272
2.05014
0.126608
2.07084
0.112365
2.0926
0.101227
2.11486
0.0928614
2.13711
0.0869277
2.15895
0.0830866
2.18004
0.0810197
2.20012
0.0804428
2.21898
0.0811241
2.23645
0.0828838
2.25236
0.0855898
2.26655
0.0891397
2.2789
0.0934428
2.28924
0.0983989
2.29749
0.103883
2.30355
0.109739
2.30742
0.115779
2.30911
0.12179
2.30873
0.127546
2.30642
0.132817
2.30242
0.137378
2.29697
0.141024
2.29041
0.14357
2.28308
0.144863
2.27539
0.144785
2.26774
0.14326
2.26057
0.14026
2.25428
0.135809
2.24927
0.129986
2.2459
0.122919
2.24448
0.114784
2.24525
0.105795
2.2484
0.0961952
2.25402
0.086248
2.26214
0.0762264
2.27271
0.0664038
2.2856
0.0570452
2.30063
0.0483936
2.31752
0.0406614
2.33597
0.0340197
2.35564
0.0285878
2.37617
0.0244245
2.3972
0.0215237
2.41839
0.0198174
2.43946
0.0191823
2.46016
0.0194555
2.48032
0.0204557
2.49981
0.022002
2.51855
0.0239306
2.53651
0.0261059
2.55368
0.0284213
2.57004
0.0307949
2.58562
0.0331588
2.60044
0.0354484
2.61452
0.0375916
2.62791
0.0395024
2.6407
0.0410784
2.65299
0.0422021
2.66493
0.0427471
2.67671
0.0425851
2.68854
0.0415953
2.70066
0.0396706
2.71336
0.0367227
2.72693
0.0326825
2.74165
0.0274988
2.75782
0.0211329
2.77576
0.0135515
2.79577
0.00471933
2.81816
-0.00540905
2.84324
-0.0168959
2.87137
-0.029827
2.9029
-0.0443166
2.93823
-0.0605135
2.9778
-0.0786054
3.02209
-0.0988247
3.07167
-0.121454
3.12716
-0.146833
3.1893
-0.175364
3.25893
-0.207522
3.33703
-0.243861
3.42475
-0.285017
3.52342
-0.331714
3.63462
-0.384758
3.76015
-0.445022
3.90216
-0.513416
4.06314
-0.59082
4.24595
-0.677973
4.45385
-0.775278
4.69043
-0.882485
4.9594
-0.998178
5.26406
-1.11901
5.60616
-1.23866
5.98391
-1.34672
6.38887
-1.42831
6.80284
-1.46661
7.19862
-1.45193
7.5513
-1.39929
7.86009
-1.36049
8.1456
-1.38839
8.44329
-1.52554
8.80344
-1.80822
9.3002
-2.27189
10.0488
-2.9471
11.2198
-3.82474
12.9875
-4.72435
15.1182
-4.87091
15.3357
-1.83841
15.3205
-0.818852
15.2817
-0.262257
15.2816
0.112181
15.2644
0.559947
15.0078
1.35061
13.6302
3.124
12.9811
2.37447
12.7326
1.89077
12.5377
1.96459
12.0985
2.60891
11.0892
3.77035
9.86729
4.47181
8.40988
5.08055
6.9261
5.28115
5.53729
5.1893
4.27112
4.9709
3.11219
4.73289
2.03265
4.53
1.00401
4.38694
4.31374
1.14915
4.80108
1.95565
4.41577
2.3872
3.83141
2.54957
3.21698
2.55904
2.66517
2.49857
2.20748
2.41442
1.84105
2.32791
1.54983
2.24761
1.31647
2.17666
1.12671
2.11597
0.969884
2.06553
0.838318
2.02495
0.726495
1.99364
0.63043
1.97094
0.547221
1.95614
0.474726
1.94854
0.411353
1.94741
0.355905
1.95204
0.307479
1.96169
0.265383
1.97565
0.229076
1.99316
0.198122
2.01348
0.172143
2.0359
0.150785
2.0597
0.133692
2.08424
0.12048
2.10893
0.110733
2.13327
0.104008
2.15688
0.0998551
2.17946
0.0978467
2.2008
0.0976115
2.22074
0.0988536
2.23915
0.101361
2.25591
0.104994
2.27086
0.10966
2.28385
0.115278
2.29473
0.12175
2.30335
0.128933
2.30959
0.136631
2.31343
0.144601
2.31486
0.152557
2.314
0.160196
2.31098
0.167212
2.30606
0.173309
2.29952
0.178216
2.2917
0.181692
2.283
0.183532
2.27386
0.183578
2.26474
0.181725
2.25612
0.177933
2.24846
0.17223
2.2422
0.164717
2.23777
0.155566
2.23549
0.145007
2.23565
0.133326
2.23845
0.120844
2.24399
0.10791
2.25231
0.0948832
2.26335
0.0821246
2.27695
0.0699831
2.29289
0.0587829
2.31088
0.0488095
2.33054
0.0402935
2.35148
0.0333979
2.37327
0.028203
2.39549
0.0246978
2.41776
0.0227806
2.43973
0.0222718
2.46116
0.022935
2.48187
0.0245086
2.50174
0.0267383
2.52073
0.0294024
2.53883
0.0323271
2.55605
0.0353866
2.57241
0.0384938
2.58791
0.0415827
2.60258
0.0445895
2.61643
0.0474359
2.62949
0.0500188
2.64182
0.0522072
2.65354
0.053845
2.66477
0.0547618
2.67572
0.0547832
2.68661
0.053746
2.69772
0.0515082
2.70932
0.047957
2.72174
0.0430101
2.73528
0.0366127
2.75024
0.0287282
2.76693
0.0193291
2.78564
0.0083855
2.80667
-0.00414638
2.83031
-0.0183329
2.85688
-0.0342704
2.88671
-0.0520923
2.92014
-0.0719753
2.95758
-0.0941438
2.99946
-0.118878
3.04629
-0.146517
3.09863
-0.177473
3.15714
-0.212238
3.22259
-0.251394
3.29588
-0.295624
3.37805
-0.345727
3.47038
-0.40262
3.57435
-0.467351
3.69176
-0.541091
3.82476
-0.625119
3.97599
-0.720776
4.14865
-0.829377
4.34665
-0.952035
4.57474
-1.08933
4.83857
-1.24074
5.14441
-1.40351
5.4981
-1.57091
5.90232
-1.72927
6.35057
-1.85452
6.81752
-1.91092
7.25126
-1.86219
7.5901
-1.71411
7.83218
-1.57821
8.00845
-1.53993
8.1606
-1.65235
8.33977
-1.96098
8.62499
-2.52888
9.17114
-3.46182
10.3202
-4.93678
12.8409
-7.19367
18.1507
-10.1339
16.3553
-17.8013
15.8771
-5.7671
15.6561
-0.177225
15.7293
0.740842
16.0551
2.83931
16.7812
6.99415
12.8806
7.05775
12.4974
2.78818
12.8064
1.61075
13.182
1.61773
13.26
2.56071
11.7907
5.27082
10.476
5.81746
8.61047
6.97604
6.83426
7.08533
5.31889
6.73049
4.03311
6.2807
2.9093
5.87939
1.8896
5.57145
0.930817
5.36682
5.26528
0.763845
4.04703
1.37129
3.8231
1.77276
3.45476
1.99777
3.03322
2.10135
2.62273
2.13214
2.25498
2.1232
1.93865
2.09455
1.67088
2.05784
1.44479
2.01983
1.25311
1.9844
1.08944
1.95371
0.948594
1.92889
0.826477
1.91043
0.719913
1.89844
0.626453
1.89277
0.544211
1.89309
0.471741
1.89898
0.407928
1.90994
0.351922
1.92539
0.303065
1.94469
0.260848
1.96718
0.224854
1.99212
0.19472
2.0188
0.170092
2.04649
0.150587
2.07449
0.135767
2.1022
0.125127
2.12912
0.118099
2.15487
0.114097
2.17923
0.112554
2.20204
0.112986
2.22325
0.115028
2.24279
0.118447
2.26057
0.123124
2.27648
0.129008
2.29032
0.136063
2.30191
0.144212
2.31104
0.153309
2.31756
0.163116
2.32138
0.173316
2.3225
0.183538
2.32101
0.193381
2.31708
0.202447
2.31097
0.210361
2.30299
0.216778
2.29354
0.221393
2.28305
0.223944
2.27201
0.224223
2.26095
0.222087
2.25041
0.217476
2.24094
0.210421
2.23305
0.20105
2.22721
0.189581
2.22381
0.176316
2.22317
0.161621
2.22551
0.14591
2.23097
0.129628
2.23956
0.113236
2.25121
0.0971925
2.26575
0.0819451
2.28292
0.0679114
2.30236
0.0554648
2.32365
0.0449131
2.34629
0.0364751
2.36977
0.0302603
2.39358
0.0262524
2.41725
0.0243053
2.4404
0.024159
2.46274
0.0254735
2.4841
0.027876
2.5044
0.0310129
2.52365
0.0345892
2.54189
0.0383907
2.55916
0.042283
2.5755
0.0461913
2.59092
0.0500709
2.60543
0.0538748
2.61901
0.0575291
2.63168
0.0609168
2.64346
0.0638749
2.65445
0.0662
2.66479
0.0676639
2.67468
0.0680337
2.68437
0.0670921
2.69416
0.0646556
2.70438
0.060585
2.71535
0.0547882
2.7274
0.047214
2.74084
0.0378398
2.75599
0.0266554
2.77311
0.0136456
2.79248
-0.00122123
2.81438
-0.0180085
2.83906
-0.0368172
2.86682
-0.0577942
2.89797
-0.0811378
2.93285
-0.107103
2.97182
-0.136008
3.01533
-0.168245
3.06386
-0.204287
3.11798
-0.244702
3.17836
-0.29017
3.24577
-0.341493
3.32116
-0.399619
3.40565
-0.465659
3.50061
-0.540903
3.60773
-0.626836
3.7291
-0.725151
3.86739
-0.83774
4.02599
-0.966667
4.20935
-1.11408
4.42334
-1.28198
4.6758
-1.47178
4.97701
-1.68317
5.33973
-1.91182
5.77707
-2.14433
6.29417
-2.34846
6.86625
-2.45818
7.39934
-2.36802
7.726
-2.01321
7.87046
-1.69541
7.89602
-1.53834
7.85198
-1.58084
7.77188
-1.85255
7.69205
-2.41917
7.69617
-3.43361
8.06335
-5.26786
9.9007
-8.9819
10.4833
-12.1654
28.3895
-23.8651
21.467
-18.5754
16.5742
-3.84765
17.8278
6.70425
20.2099
8.69277
16.8448
3.9743
8.61105
0.735216
11.32
1.30904
12.8134
1.74417
14.125
3.72951
15.9701
8.20406
12.3373
8.93477
11.6346
6.55196
8.71976
9.92312
6.47942
9.356
4.8691
8.36837
3.6318
7.54315
2.60136
6.93319
1.68497
6.50996
0.829274
6.24379
6.11531
0.539909
3.5369
1.00295
3.3978
1.35122
3.15666
1.58728
2.86241
1.7336
2.55551
1.81581
2.26111
1.85543
1.99132
1.86846
1.74998
1.86616
1.53657
1.85617
1.34868
1.84356
1.1833
1.83159
1.03745
1.82232
0.90848
1.81697
0.794145
1.8162
0.692578
1.82029
0.602266
1.82928
0.522006
1.84298
0.450848
1.86109
0.388058
1.88317
0.333075
1.9087
0.285466
1.93704
0.244886
1.9675
0.211031
1.9993
0.183583
2.03167
0.162167
2.06385
0.146301
2.09517
0.135381
2.12512
0.128688
2.15333
0.125442
2.17966
0.124886
2.20409
0.126384
2.22667
0.12949
2.24746
0.133969
2.26646
0.139768
2.28353
0.146933
2.29847
0.155523
2.31101
0.165526
2.32085
0.176797
2.32776
0.189052
2.33161
0.201877
2.33235
0.21478
2.33008
0.227238
2.325
0.238742
2.31739
0.248825
2.30761
0.257066
2.29609
0.263089
2.28333
0.266565
2.26987
0.267223
2.25634
0.264869
2.24336
0.259411
2.23157
0.250879
2.22158
0.239431
2.21394
0.225346
2.20911
0.209009
2.20746
0.190886
2.20923
0.171502
2.21458
0.151414
2.22351
0.131195
2.23596
0.11142
2.25172
0.0926481
2.27047
0.0754092
2.29181
0.0601834
2.31521
0.0473766
2.34007
0.037287
2.36576
0.030069
2.39163
0.0257039
2.4171
0.0239873
2.44171
0.0245454
2.46514
0.0268861
2.48723
0.0304744
2.50798
0.0348153
2.52745
0.0395195
2.54578
0.0443339
2.56307
0.0491351
2.57938
0.053891
2.59472
0.0586093
2.60908
0.0632863
2.6224
0.0678671
2.63463
0.0722251
2.64579
0.0761574
2.65592
0.0793996
2.66516
0.0816459
2.67374
0.0825836
2.68194
0.081923
2.69009
0.0794283
2.69858
0.0749317
2.70777
0.068338
2.71802
0.0596126
2.72966
0.048761
2.74298
0.0358067
2.75824
0.0207654
2.7757
0.00362696
2.79557
-0.0156583
2.81808
-0.03719
2.84348
-0.0611228
2.87201
-0.0876702
2.90394
-0.117111
2.93959
-0.149796
2.97929
-0.186155
3.02345
-0.226712
3.07252
-0.272098
3.12704
-0.323071
3.18765
-0.380536
3.25512
-0.445574
3.33041
-0.519467
3.41468
-0.603734
3.50941
-0.700164
3.61651
-0.810865
3.73846
-0.938312
3.87858
-1.08541
4.04144
-1.25553
4.23354
-1.45261
4.4644
-1.68103
4.74836
-1.94526
5.10723
-2.24835
5.57294
-2.58679
6.18446
-2.93491
6.95641
-3.20095
7.75416
-3.12942
8.04379
-2.27011
8.02754
-1.64891
7.85352
-1.33517
7.58027
-1.27863
7.20525
-1.44819
6.67761
-1.86136
5.86192
-2.58661
4.34931
-3.72285
6.71723
-5.22863
-1.21644
-8.67071
33.6791
-4.16717
36.1948
-7.46467
27.1261
1.40541
19.8163
7.71674
15.4915
10.3827
13.6057
13.0601
9.18487
14.002
11.7551
15.704
14.7987
15.6317
18.5996
10.0766
16.7008
7.14025
9.95453
7.02587
15.0058
17.5716
8.15264
16.808
5.49179
12.0476
4.04388
9.84417
3.02184
8.59065
2.17813
7.80054
1.4188
7.29163
0.700796
6.9832
6.83691
0.400808
3.19136
0.761809
3.0996
1.05697
2.93398
1.28038
2.72096
1.4392
2.48553
1.54602
2.24638
1.61409
2.01534
1.65506
1.79885
1.67827
1.5997
1.69078
1.41845
1.6977
1.25447
1.70263
1.10655
1.70799
0.9733
1.7154
0.853354
1.72589
0.745454
1.74003
0.648508
1.75812
0.561603
1.78019
0.484003
1.8061
0.415138
1.83556
0.354584
1.86812
0.302037
1.90319
0.257271
1.94005
0.220093
1.97788
0.190277
2.0158
0.167494
2.05293
0.151247
2.08848
0.14082
2.12187
0.135291
2.15278
0.133602
2.18116
0.134711
2.20719
0.13776
2.23115
0.142201
2.25326
0.147831
2.27362
0.154733
2.29212
0.163149
2.30848
0.173319
2.32228
0.185344
2.3331
0.199105
2.34059
0.214244
2.34451
0.230209
2.3448
0.246333
2.34158
0.261928
2.33508
0.276351
2.32563
0.289035
2.31363
0.299483
2.29957
0.307251
2.28398
0.311931
2.26752
0.313166
2.25088
0.310689
2.23483
0.304358
2.22012
0.294194
2.2075
0.280392
2.19761
0.263308
2.19099
0.243433
2.18808
0.22136
2.18914
0.197743
2.19436
0.173275
2.20374
0.148658
2.21719
0.124593
2.23448
0.101767
2.25525
0.0808402
2.279
0.0624289
2.30512
0.0470699
2.33285
0.0351752
2.36139
0.0269741
2.38991
0.0224574
2.41766
0.0213456
2.44405
0.0231015
2.46873
0.0270045
2.49157
0.032275
2.51268
0.0382117
2.53227
0.0442989
2.55058
0.050252
2.56782
0.055996
2.58409
0.0615943
2.5994
0.0671583
2.61366
0.0727653
2.62676
0.0784005
2.63857
0.0839317
2.64903
0.0891062
2.65816
0.093573
2.6661
0.0969182
2.67308
0.0987147
2.67944
0.0985736
2.6856
0.0961894
2.69199
0.0913643
2.69905
0.0840105
2.70717
0.0741296
2.71671
0.0617806
2.72794
0.0470425
2.74111
0.0299815
2.75641
0.0106243
2.77404
-0.0110571
2.79415
-0.0351549
2.81693
-0.0618269
2.84257
-0.0912979
2.87126
-0.123864
2.90323
-0.159897
2.93873
-0.199854
2.97806
-0.244293
3.02154
-0.29389
3.06957
-0.349459
3.12261
-0.411985
3.18123
-0.482648
3.24614
-0.562873
3.31825
-0.654365
3.39871
-0.759178
3.48907
-0.879782
3.59137
-1.01917
3.70845
-1.18103
3.84437
-1.36992
4.00512
-1.59172
4.20016
-1.85419
4.44527
-2.16808
4.76879
-2.54881
5.22482
-3.01827
5.91842
-3.6007
7.02794
-4.27395
8.61346
-4.65914
8.66499
-2.28504
8.34128
-1.29326
7.91006
-0.873734
7.4107
-0.749588
6.79208
-0.799987
5.95236
-0.991892
4.72568
-1.32999
2.84353
-1.81077
3.27515
-2.63715
3.28711
-4.05585
30.3816
-2.37845
45.0648
6.40332
33.4374
12.7007
22.4823
18.5819
18.1688
26.2897
14.5476
31.3946
10.8869
33.7347
11.6829
34.3112
9.24355
30.7105
15.6632
24.3046
16.5864
22.6061
20.5002
28.8751
14.2422
29.5296
3.39225
14.6845
3.2884
12.1772
2.79037
10.3677
2.23173
9.17385
1.66922
8.38647
1.11036
7.87283
0.554511
7.5605
7.41226
0.309049
2.95741
0.59619
2.89248
0.843947
2.77158
1.04495
2.60952
1.20004
2.42209
1.31498
2.22292
1.3976
2.02223
1.4559
1.82694
1.49702
1.64127
1.5268
1.46742
1.54978
1.30632
1.56938
1.15804
1.58804
1.02221
1.6075
0.898201
1.62894
0.78532
1.65313
0.682878
1.68052
0.590258
1.71132
0.506953
1.74555
0.43258
1.78301
0.366886
1.82335
0.309733
1.86601
0.261071
1.91023
0.220881
1.9551
0.1891
1.99956
0.165517
2.0425
0.149664
2.08295
0.140713
2.12018
0.137457
2.15389
0.138417
2.18421
0.142097
2.21163
0.147288
2.23678
0.153304
2.26016
0.160037
2.28204
0.16784
2.30229
0.177302
2.3205
0.188983
2.33604
0.203183
2.34824
0.219821
2.35655
0.238423
2.36063
0.258214
2.3604
0.278267
2.35601
0.297657
2.34776
0.315577
2.33607
0.331369
2.3214
0.344482
2.30425
0.35441
2.28522
0.360655
2.26504
0.362743
2.24455
0.360287
2.22466
0.353066
2.20632
0.341079
2.19041
0.324569
2.17773
0.303995
2.16892
0.279993
2.16446
0.253315
2.16468
0.224777
2.16974
0.195225
2.17967
0.165508
2.19436
0.136465
2.21355
0.108923
2.23684
0.083695
2.26364
0.0615617
2.29322
0.0432378
2.32465
0.0293077
2.35688
0.0201319
2.3888
0.0157445
2.41942
0.0157769
2.44796
0.019454
2.474
0.0257025
2.49751
0.033359
2.51877
0.0414087
2.53822
0.0491651
2.55632
0.0563345
2.57342
0.0629603
2.58966
0.0692913
2.60501
0.0756255
2.6193
0.0821779
2.63229
0.0890031
2.64374
0.0959626
2.6535
0.102734
2.66151
0.108841
2.6679
0.113714
2.67294
0.11676
2.67706
0.117447
2.68077
0.115374
2.68463
0.110311
2.68916
0.102197
2.69482
0.0911037
2.70197
0.0771802
2.71088
0.0605958
2.72175
0.0414915
2.73473
0.0199461
2.74994
-0.00403788
2.76748
-0.0305428
2.78746
-0.0597268
2.81
-0.0918239
2.83522
-0.127141
2.86327
-0.166062
2.89429
-0.209057
2.92847
-0.256701
2.96598
-0.30969
3.00705
-0.36887
3.05194
-0.435269
3.101
-0.510132
3.15465
-0.594975
3.21343
-0.691635
3.27811
-0.802348
3.34967
-0.929847
3.42952
-1.07749
3.51956
-1.24949
3.62257
-1.45124
3.74265
-1.68992
3.88627
-1.97558
4.06454
-2.32352
4.29932
-2.75967
4.64239
-3.33532
5.24517
-4.17281
6.64274
-5.62701
10.9876
-8.92751
9.65677
-9.9827
8.76081
-5.11594
8.03421
-2.15242
7.3603
-0.627084
6.60018
-0.133398
5.61426
0.28034
4.24491
0.778418
2.01715
0.445403
1.85645
-0.728757
4.9645
-1.42605
39.1634
15.5523
51.3622
27.1395
39.3186
24.5412
30.1901
27.702
23.2737
33.0401
16.8877
37.523
11.4634
38.8323
8.08212
37.2304
2.83762
35.4632
13.9648
39.522
22.8554
40.8267
21.1547
37.0099
-0.60298
18.3515
0.884964
13.7817
1.47886
11.6077
1.59655
10.2742
1.44434
9.34985
1.15558
8.69829
0.798041
8.25259
0.406268
7.97372
7.83938
0.244116
2.79846
0.475289
2.74892
0.681892
2.65467
0.857529
2.52457
1.00087
2.369
1.11429
2.19797
1.20232
2.01995
1.27023
1.84146
1.32318
1.66714
1.36569
1.50007
1.40151
1.34209
1.43354
1.19417
1.46403
1.05668
1.49462
0.92959
1.5265
0.812662
1.56051
0.705553
1.59721
0.607912
1.63695
0.519445
1.67985
0.439957
1.72586
0.36938
1.77469
0.30778
1.82582
0.255335
1.87845
0.21228
1.93152
0.178819
1.9837
0.154977
2.03355
0.140409
2.0797
0.1342
2.12114
0.134754
2.15757
0.139915
2.1894
0.147423
2.21765
0.155491
2.24351
0.163238
2.26797
0.170761
2.2915
0.178915
2.31397
0.188904
2.3347
0.201832
2.35268
0.218326
2.36685
0.238345
2.37634
0.26121
2.38069
0.285776
2.37979
0.3107
2.37393
0.334707
2.36355
0.356797
2.34919
0.376259
2.33133
0.392553
2.31049
0.405149
2.28731
0.41344
2.26259
0.416773
2.23733
0.414567
2.21268
0.406459
2.18981
0.392413
2.16984
0.372735
2.15373
0.348041
2.14224
0.31916
2.13592
0.287059
2.13512
0.252755
2.14002
0.217272
2.15063
0.181615
2.16682
0.146766
2.18832
0.113696
2.2147
0.083383
2.24532
0.0568119
2.27929
0.03494
2.31548
0.0186148
2.35249
0.00843092
2.38883
0.00454312
2.42309
0.00649626
2.4542
0.0131694
2.48166
0.0229284
2.50556
0.0339883
2.52652
0.0448401
2.54539
0.0545625
2.56295
0.0629066
2.57975
0.0701683
2.59599
0.0769371
2.61156
0.0838281
2.62612
0.0912751
2.63925
0.0994305
2.65051
0.108144
2.6596
0.116988
2.66638
0.125309
2.67094
0.132306
2.67363
0.137137
2.67498
0.139055
2.67571
0.137526
2.67652
0.132289
2.67807
0.123347
2.6809
0.110895
2.68538
0.0952309
2.69177
0.0766624
2.7002
0.0554372
2.71075
0.0317036
2.72343
0.00549704
2.73829
-0.0232534
2.75536
-0.0547136
2.77468
-0.0891272
2.7963
-0.126809
2.82027
-0.168144
2.84665
-0.213601
2.87548
-0.263749
2.9068
-0.31928
2.94065
-0.381039
2.97708
-0.450058
3.01616
-0.527601
3.05799
-0.615215
3.10272
-0.714798
3.15061
-0.828669
3.20203
-0.959679
3.25751
-1.11135
3.31781
-1.28806
3.3839
-1.49544
3.45699
-1.74083
3.53833
-2.03427
3.6284
-2.39013
3.72367
-2.8301
3.8049
-3.38918
3.79097
-4.12617
3.34223
-5.13124
9.93238
-6.43169
14.5235
-12.5526
11.7243
-13.4531
9.55954
-7.40877
7.85399
-1.55675
7.01392
2.54046
6.11234
3.11642
3.91189
1.11588
0.84299
0.0311076
1.15915
0.508224
21.9428
1.0246
50.7506
21.0989
48.764
28.6876
42.4794
30.8045
35.5283
34.6525
27.7566
40.8067
18.197
47.0724
9.86148
47.1519
6.31495
40.7519
6.89647
34.8537
15.2695
30.5943
19.0386
24.0287
2.4963
10.9464
-5.17281
6.50544
-1.28904
9.92261
0.145376
10.1974
0.672176
9.77106
0.792786
9.25254
0.709884
8.80396
0.519171
8.4654
0.271925
8.24238
8.13217
0.194568
2.6916
0.381046
2.65102
0.551787
2.57281
0.701961
2.46268
0.829838
2.32788
0.93627
2.17597
1.02383
2.01394
1.09591
1.8477
1.1561
1.68194
1.20771
1.52011
1.25359
1.36462
1.29605
1.21701
1.33694
1.07817
1.37769
0.9485
1.41939
0.828093
1.46287
0.716868
1.50875
0.614674
1.55746
0.52139
1.60928
0.436985
1.66426
0.361578
1.72225
0.295455
1.78276
0.239079
1.84499
0.193039
1.90768
0.15795
1.96913
0.134263
2.02734
0.121963
2.08025
0.120158
2.1263
0.126738
2.16507
0.138417
2.19747
0.151598
2.2254
0.163477
2.25103
0.172904
2.27612
0.180414
2.30149
0.187761
2.3269
0.197218
2.3512
0.210807
2.3727
0.22967
2.38971
0.253781
2.40091
0.282075
2.40561
0.312783
2.4038
0.343869
2.39602
0.373514
2.38302
0.400498
2.36548
0.424184
2.34392
0.444199
2.31878
0.460077
2.29064
0.471078
2.26038
0.476245
2.22922
0.474656
2.19863
0.465706
2.17013
0.449293
2.14515
0.42584
2.12485
0.396193
2.11014
0.361472
2.10162
0.322929
2.09964
0.281835
2.10437
0.239417
2.11578
0.196838
2.13375
0.155208
2.15801
0.115632
2.18813
0.0792501
2.22345
0.0472824
2.26297
0.0210131
2.30529
0.00169763
2.3486
-0.00965076
2.39079
-0.0125853
2.42977
-0.00758986
2.46396
0.00371729
2.49272
0.0187765
2.51641
0.0347543
2.53625
0.0493338
2.55373
0.0612769
2.57021
0.070506
2.58652
0.0778179
2.60288
0.0844135
2.61901
0.0914288
2.63428
0.0996199
2.64796
0.109257
2.65936
0.120152
2.66792
0.131723
2.67338
0.143062
2.67577
0.153025
2.67554
0.160389
2.67346
0.164075
2.67047
0.163354
2.66758
0.157946
2.66562
0.147982
2.66523
0.133877
2.66681
0.116168
2.67055
0.0953708
2.67647
0.07188
2.68454
0.0459272
2.69468
0.017576
2.70683
-0.0132511
2.72095
-0.0467406
2.737
-0.0831535
2.75497
-0.122809
2.77482
-0.166086
2.7965
-0.213432
2.81995
-0.265389
2.84504
-0.322613
2.87163
-0.385913
2.89954
-0.456283
2.92855
-0.534949
2.95841
-0.623431
2.98885
-0.7236
3.0196
-0.837762
3.05036
-0.968743
3.0808
-1.12
3.11044
-1.29578
3.13851
-1.50134
3.16354
-1.74331
3.18248
-2.03005
3.18842
-2.37192
3.16459
-2.78052
3.06792
-3.26398
2.7859
-3.80988
2.04179
-4.33855
3.8115
-4.64312
13.623
-7.11671
17.7687
-4.66791
15.4116
-0.102583
11.9512
0.358248
7.58988
2.72933
4.11179
5.74698
2.82712
10.2118
1.32011
15.4952
1.67553
23.9843
42.0171
39.727
58.3393
44.2916
50.8809
36.0871
46.3273
35.3559
41.6825
39.2972
34.0223
48.4669
18.2765
62.8179
3.46144
61.9664
0.416747
43.796
2.63712
32.6327
8.70385
24.507
5.95627
16.6004
-1.94462
9.43576
-1.75564
8.26823
-1.0143
9.20579
-0.280916
9.48806
0.15366
9.36004
0.344198
9.08509
0.371325
8.7994
0.296151
8.56254
0.161715
8.39818
8.31474
0.153987
2.62369
0.302837
2.58832
0.441662
2.5196
0.567163
2.42157
0.677928
2.29962
0.774237
2.15975
0.85759
2.0079
0.930148
1.84949
0.994275
1.6891
1.05222
1.53043
1.10598
1.37619
1.15721
1.2283
1.20727
1.08797
1.25729
0.955859
1.30817
0.832265
1.36068
0.717253
1.41546
0.610789
1.47306
0.512856
1.53387
0.423541
1.59814
0.343121
1.66587
0.272112
1.73672
0.211303
1.8099
0.161741
1.88399
0.124645
1.95683
0.101199
2.02554
0.0921243
2.08683
0.0969017
2.13798
0.112861
2.17825
0.134721
2.20935
0.156443
2.23482
0.173342
2.25854
0.183974
2.28347
0.189771
2.31094
0.194092
2.34049
0.201039
2.37006
0.214185
2.39681
0.235475
2.418
0.264772
2.43162
0.300288
2.43669
0.339198
2.43344
0.378284
2.423
0.414805
2.4067
0.447336
2.3855
0.475633
2.3598
0.499847
2.32978
0.519759
2.29581
0.534434
2.25879
0.542368
2.22027
0.542006
2.18222
0.53232
2.14668
0.513125
2.1155
0.485053
2.09013
0.449334
2.0716
0.407523
2.06052
0.361268
2.05722
0.312156
2.06179
0.26164
2.07415
0.211024
2.09417