/*--------------------------------*- C++ -*----------------------------------*\
| =========                 |                                                 |
| \\      /  F ield         | OpenFOAM: The Open Source CFD Toolbox           |
|  \\    /   O peration     | Version:  2.1.0                                 |
|   \\  /    A nd           | Web:      www.OpenFOAM.org                      |
|    \\/     M anipulation  |                                                 |
\*---------------------------------------------------------------------------*/
FoamFile
{
    version     2.0;
    format      ascii;
    class       volScalarField;
    location    "60225";
    object      pw;
}
// * * * * * * * * * * * * * * * * * * * * * * * * * * * * * * * * * * * * * //

dimensions      [1 -1 -2 0 0 0 0];

internalField   nonuniform List<scalar> 
15000
(
5749.66
5731.06
5719.83
5712.07
5706.21
5701.52
5697.6
5694.22
5691.2
5688.45
5685.87
5683.44
5681.12
5678.88
5676.7
5674.57
5672.48
5670.41
5668.36
5666.32
5664.28
5662.24
5660.19
5658.13
5656.06
5653.97
5651.87
5649.74
5647.6
5645.44
5643.25
5641.05
5638.84
5636.61
5634.36
5632.1
5629.83
5627.54
5625.26
5622.96
5620.66
5618.36
5616.06
5613.76
5611.46
5609.17
5606.88
5604.6
5602.32
5600.05
5597.78
5595.52
5593.26
5591
5588.74
5586.48
5584.22
5581.95
5579.67
5577.39
5575.09
5572.78
5570.45
5568.11
5565.75
5563.37
5560.97
5558.55
5556.11
5553.65
5551.17
5548.67
5546.16
5543.62
5541.07
5538.51
5535.92
5533.33
5530.71
5528.09
5525.45
5522.8
5520.13
5517.45
5514.76
5512.06
5509.34
5506.6
5503.85
5501.08
5498.29
5495.48
5492.64
5489.78
5486.89
5483.96
5480.99
5477.99
5474.93
5471.82
5468.65
5465.41
5462.09
5458.69
5455.2
5451.59
5447.86
5444
5439.98
5435.79
5431.4
5426.79
5421.93
5416.81
5411.39
5405.64
5399.55
5393.1
5386.28
5379.08
5371.49
5363.5
5355.09
5346.21
5336.78
5326.71
5315.89
5304.23
5291.72
5278.43
5264.57
5250.36
5235.97
5221.58
5207.35
5193.43
5179.95
5166.97
5154.56
5142.77
5131.71
5121.54
5112.37
5104.32
5097.45
5091.77
5087.28
5083.95
5081.75
5080.65
5731.04
5723.7
5716.37
5710.17
5705.04
5700.73
5697.04
5693.79
5690.87
5688.17
5685.64
5683.25
5680.95
5678.73
5676.58
5674.46
5672.39
5670.33
5668.29
5666.26
5664.23
5662.2
5660.15
5658.1
5656.03
5653.95
5651.84
5649.72
5647.58
5645.41
5643.23
5641.03
5638.82
5636.58
5634.34
5632.07
5629.8
5627.52
5625.23
5622.93
5620.63
5618.33
5616.03
5613.72
5611.43
5609.13
5606.84
5604.56
5602.28
5600.01
5597.75
5595.48
5593.23
5590.97
5588.72
5586.46
5584.2
5581.93
5579.66
5577.37
5575.08
5572.77
5570.44
5568.1
5565.74
5563.36
5560.96
5558.54
5556.1
5553.64
5551.16
5548.67
5546.15
5543.62
5541.06
5538.5
5535.91
5533.32
5530.7
5528.08
5525.44
5522.79
5520.12
5517.44
5514.75
5512.05
5509.33
5506.59
5503.84
5501.08
5498.29
5495.48
5492.65
5489.79
5486.9
5483.98
5481.02
5478.01
5474.96
5471.86
5468.69
5465.46
5462.16
5458.77
5455.28
5451.69
5447.98
5444.13
5440.13
5435.96
5431.6
5427.01
5422.18
5417.09
5411.69
5405.96
5399.89
5393.45
5386.64
5379.44
5371.87
5363.91
5355.54
5346.73
5337.4
5327.43
5316.7
5305.07
5292.47
5278.99
5264.91
5250.5
5235.95
5221.41
5207.02
5192.97
5179.41
5166.4
5153.91
5142.01
5130.82
5120.51
5111.24
5103.12
5096.23
5090.56
5086.1
5082.79
5080.62
5079.54
5719.77
5716.32
5711.76
5707.21
5703.04
5699.32
5695.99
5692.98
5690.22
5687.64
5685.2
5682.87
5680.63
5678.45
5676.34
5674.26
5672.21
5670.18
5668.16
5666.14
5664.13
5662.11
5660.08
5658.03
5655.97
5653.89
5651.79
5649.67
5647.53
5645.37
5643.19
5640.99
5638.77
5636.54
5634.29
5632.03
5629.75
5627.47
5625.17
5622.87
5620.57
5618.26
5615.96
5613.66
5611.36
5609.06
5606.77
5604.49
5602.21
5599.94
5597.68
5595.42
5593.17
5590.91
5588.66
5586.41
5584.15
5581.89
5579.62
5577.34
5575.05
5572.75
5570.42
5568.08
5565.73
5563.35
5560.95
5558.53
5556.09
5553.63
5551.15
5548.65
5546.14
5543.6
5541.05
5538.48
5535.9
5533.3
5530.68
5528.06
5525.42
5522.77
5520.1
5517.42
5514.73
5512.03
5509.31
5506.58
5503.84
5501.07
5498.29
5495.49
5492.66
5489.81
5486.92
5484.01
5481.06
5478.06
5475.02
5471.93
5468.78
5465.57
5462.28
5458.91
5455.45
5451.89
5448.21
5444.4
5440.44
5436.31
5431.99
5427.46
5422.68
5417.64
5412.29
5406.62
5400.58
5394.16
5387.35
5380.16
5372.61
5364.69
5356.42
5347.76
5338.63
5328.9
5318.39
5306.86
5294.08
5280.1
5265.56
5250.77
5235.9
5221.05
5206.34
5191.98
5178.33
5165.26
5152.66
5140.52
5129.01
5118.41
5108.92
5100.69
5093.77
5088.13
5083.73
5080.5
5078.37
5077.32
5711.94
5710.06
5707.14
5703.86
5700.59
5697.48
5694.57
5691.85
5689.3
5686.87
5684.55
5682.32
5680.15
5678.05
5675.98
5673.95
5671.94
5669.95
5667.96
5665.97
5663.98
5661.98
5659.97
5657.93
5655.88
5653.81
5651.72
5649.61
5647.47
5645.31
5643.13
5640.93
5638.71
5636.47
5634.22
5631.96
5629.68
5627.39
5625.09
5622.79
5620.48
5618.17
5615.86
5613.55
5611.25
5608.96
5606.66
5604.38
5602.11
5599.84
5597.58
5595.32
5593.07
5590.83
5588.58
5586.34
5584.09
5581.84
5579.57
5577.3
5575.02
5572.72
5570.4
5568.06
5565.71
5563.33
5560.93
5558.51
5556.07
5553.61
5551.13
5548.63
5546.12
5543.58
5541.03
5538.46
5535.87
5533.27
5530.66
5528.03
5525.39
5522.73
5520.07
5517.39
5514.7
5512
5509.29
5506.56
5503.82
5501.06
5498.29
5495.49
5492.67
5489.83
5486.96
5484.06
5481.12
5478.14
5475.12
5472.05
5468.92
5465.73
5462.47
5459.13
5455.71
5452.19
5448.55
5444.79
5440.89
5436.83
5432.58
5428.13
5423.44
5418.48
5413.21
5407.61
5401.62
5395.23
5388.43
5381.23
5373.68
5365.82
5357.67
5349.23
5340.43
5331.13
5321.08
5309.86
5296.87
5281.75
5266.42
5251.1
5235.82
5220.53
5205.27
5190.26
5176.63
5163.65
5150.92
5138.38
5126.28
5115.19
5105.32
5096.91
5089.99
5084.45
5080.18
5077.07
5075.04
5074.03
5705.99
5704.84
5702.89
5700.5
5697.95
5695.39
5692.89
5690.48
5688.15
5685.9
5683.73
5681.61
5679.55
5677.52
5675.53
5673.56
5671.6
5669.65
5667.7
5665.75
5663.79
5661.81
5659.82
5657.81
5655.77
5653.71
5651.63
5649.52
5647.39
5645.23
5643.05
5640.85
5638.63
5636.39
5634.13
5631.86
5629.58
5627.28
5624.98
5622.67
5620.36
5618.04
5615.73
5613.42
5611.11
5608.81
5606.52
5604.24
5601.96
5599.7
5597.44
5595.19
5592.95
5590.71
5588.48
5586.24
5584
5581.76
5579.51
5577.24
5574.97
5572.67
5570.36
5568.03
5565.68
5563.31
5560.91
5558.5
5556.06
5553.59
5551.11
5548.61
5546.09
5543.55
5541
5538.42
5535.83
5533.23
5530.62
5527.99
5525.34
5522.69
5520.03
5517.35
5514.66
5511.97
5509.26
5506.54
5503.8
5501.05
5498.28
5495.5
5492.69
5489.86
5487
5484.12
5481.2
5478.24
5475.24
5472.19
5469.09
5465.94
5462.71
5459.42
5456.04
5452.57
5449
5445.3
5441.48
5437.5
5433.35
5429.01
5424.43
5419.59
5414.45
5408.95
5403.05
5396.7
5389.88
5382.63
5375.04
5367.21
5359.2
5351.04
5342.7
5334.07
5324.9
5314.58
5301.74
5283.59
5267.24
5251.36
5235.7
5219.97
5203.92
5187.14
5174.26
5161.76
5148.95
5135.77
5122.51
5110.72
5100.24
5091.63
5084.8
5079.48
5075.45
5072.54
5070.65
5069.72
5701.19
5700.43
5699.06
5697.28
5695.29
5693.18
5691.05
5688.93
5686.83
5684.78
5682.76
5680.77
5678.82
5676.89
5674.98
5673.08
5671.19
5669.3
5667.4
5665.49
5663.56
5661.62
5659.65
5657.66
5655.64
5653.59
5651.52
5649.41
5647.29
5645.13
5642.95
5640.75
5638.53
5636.28
5634.02
5631.75
5629.46
5627.15
5624.84
5622.53
5620.2
5617.88
5615.56
5613.24
5610.93
5608.63
5606.34
5604.05
5601.78
5599.52
5597.27
5595.03
5592.8
5590.57
5588.34
5586.12
5583.9
5581.67
5579.43
5577.17
5574.91
5572.63
5570.32
5568
5565.65
5563.28
5560.89
5558.47
5556.03
5553.57
5551.09
5548.58
5546.06
5543.52
5540.96
5538.38
5535.79
5533.18
5530.57
5527.93
5525.29
5522.64
5519.97
5517.3
5514.61
5511.92
5509.21
5506.5
5503.77
5501.03
5498.27
5495.5
5492.71
5489.89
5487.06
5484.19
5481.29
5478.36
5475.39
5472.37
5469.31
5466.19
5463.01
5459.76
5456.44
5453.04
5449.54
5445.93
5442.2
5438.33
5434.31
5430.1
5425.67
5421
5416.02
5410.68
5404.9
5398.61
5391.74
5384.34
5376.62
5368.75
5360.85
5353
5345.23
5337.54
5329.84
5321.78
5311.88
5301.39
5273
5251.54
5234.96
5217.13
5196.92
5180.08
5171.47
5160.15
5147.34
5133.21
5117.24
5104.9
5093.27
5084.55
5078.07
5073.2
5069.57
5066.97
5065.28
5064.45
5697.14
5696.6
5695.6
5694.25
5692.66
5690.93
5689.11
5687.26
5685.39
5683.52
5681.67
5679.82
5677.99
5676.17
5674.35
5672.54
5670.72
5668.89
5667.04
5665.18
5663.3
5661.39
5659.45
5657.49
5655.49
5653.46
5651.39
5649.3
5647.17
5645.02
5642.84
5640.63
5638.41
5636.16
5633.89
5631.61
5629.31
5627
5624.68
5622.35
5620.02
5617.69
5615.36
5613.03
5610.72
5608.41
5606.11
5603.83
5601.56
5599.3
5597.06
5594.83
5592.61
5590.39
5588.18
5585.98
5583.77
5581.55
5579.33
5577.09
5574.84
5572.57
5570.28
5567.96
5565.62
5563.26
5560.87
5558.45
5556.01
5553.54
5551.05
5548.55
5546.02
5543.47
5540.91
5538.33
5535.74
5533.13
5530.5
5527.87
5525.22
5522.57
5519.9
5517.23
5514.55
5511.86
5509.16
5506.45
5503.73
5501
5498.26
5495.5
5492.73
5489.93
5487.11
5484.27
5481.4
5478.49
5475.55
5472.57
5469.55
5466.48
5463.35
5460.16
5456.91
5453.58
5450.16
5446.65
5443.04
5439.3
5435.42
5431.38
5427.15
5422.68
5417.93
5412.83
5407.25
5401.07
5394.11
5386.36
5378.31
5370.29
5362.43
5354.85
5347.65
5340.97
5335.11
5330.76
5324.04
5325.26
5291.58
5255.38
5228.26
5208.44
5192.95
5179.34
5170.16
5158.4
5143.61
5125.01
5108.31
5098.35
5083.35
5075.19
5069.7
5065.66
5062.63
5060.46
5059.04
5058.34
5693.61
5693.21
5692.45
5691.39
5690.11
5688.67
5687.12
5685.51
5683.85
5682.18
5680.48
5678.79
5677.08
5675.38
5673.66
5671.93
5670.19
5668.44
5666.66
5664.85
5663.01
5661.15
5659.24
5657.3
5655.33
5653.31
5651.26
5649.17
5647.05
5644.89
5642.71
5640.51
5638.27
5636.02
5633.75
5631.46
5629.15
5626.82
5624.49
5622.15
5619.81
5617.46
5615.12
5612.78
5610.46
5608.15
5605.85
5603.56
5601.29
5599.04
5596.81
5594.59
5592.38
5590.18
5587.99
5585.8
5583.62
5581.42
5579.22
5577
5574.77
5572.51
5570.23
5567.93
5565.59
5563.23
5560.84
5558.42
5555.98
5553.51
5551.02
5548.51
5545.97
5543.42
5540.86
5538.27
5535.67
5533.06
5530.43
5527.79
5525.14
5522.49
5519.82
5517.15
5514.47
5511.78
5509.09
5506.39
5503.68
5500.97
5498.24
5495.5
5492.74
5489.97
5487.17
5484.36
5481.51
5478.64
5475.74
5472.8
5469.82
5466.8
5463.73
5460.61
5457.43
5454.18
5450.86
5447.47
5443.98
5440.38
5436.68
5432.83
5428.83
5424.63
5420.18
5415.41
5410.19
5404.27
5397.24
5388.63
5379.96
5371.62
5363.71
5356.3
5349.51
5343.56
5338.83
5335.99
5332.71
5329.43
5299.04
5253.98
5220.54
5198.06
5179.89
5165.34
5154.46
5142.77
5133.53
5117.87
5101.28
5080.78
5066.54
5063.14
5059.86
5057.07
5054.83
5053.17
5052.05
5051.5
5690.42
5690.11
5689.51
5688.67
5687.62
5686.42
5685.11
5683.71
5682.25
5680.76
5679.23
5677.68
5676.11
5674.52
5672.92
5671.29
5669.63
5667.95
5666.24
5664.5
5662.71
5660.89
5659.02
5657.11
5655.16
5653.16
5651.12
5649.03
5646.91
5644.76
5642.57
5640.36
5638.13
5635.87
5633.58
5631.28
5628.96
5626.63
5624.28
5621.92
5619.56
5617.2
5614.84
5612.5
5610.16
5607.84
5605.53
5603.25
5600.98
5598.74
5596.51
5594.31
5592.12
5589.94
5587.77
5585.61
5583.44
5581.27
5579.09
5576.9
5574.68
5572.45
5570.18
5567.89
5565.57
5563.21
5560.82
5558.4
5555.95
5553.48
5550.98
5548.46
5545.92
5543.37
5540.79
5538.21
5535.6
5532.98
5530.35
5527.7
5525.05
5522.39
5519.72
5517.05
5514.37
5511.69
5509.01
5506.32
5503.62
5500.92
5498.21
5495.49
5492.75
5490
5487.24
5484.45
5481.64
5478.8
5475.94
5473.05
5470.12
5467.15
5464.14
5461.09
5457.99
5454.84
5451.62
5448.35
5445
5441.57
5438.05
5434.42
5430.68
5426.79
5422.73
5418.43
5413.79
5408.54
5401.9
5390.91
5381.26
5372.5
5364.46
5357.1
5350.5
5344.89
5340.64
5338.62
5336.77
5331.8
5292.64
5241.28
5201.96
5171.77
5148.5
5131.61
5120.14
5112.06
5109.22
5095.26
5072.4
5051.25
5051.85
5050.97
5049.49
5047.89
5046.45
5045.29
5044.49
5044.09
5687.46
5687.21
5686.74
5686.06
5685.2
5684.2
5683.08
5681.88
5680.61
5679.29
5677.92
5676.52
5675.09
5673.62
5672.13
5670.6
5669.04
5667.45
5665.81
5664.13
5662.4
5660.63
5658.8
5656.92
5654.99
5653.01
5650.98
5648.9
5646.77
5644.62
5642.43
5640.21
5637.97
5635.7
5633.41
5631.09
5628.76
5626.41
5624.04
5621.66
5619.28
5616.9
5614.53
5612.16
5609.82
5607.48
5605.17
5602.89
5600.62
5598.39
5596.17
5593.98
5591.81
5589.66
5587.52
5585.38
5583.25
5581.11
5578.96
5576.79
5574.6
5572.39
5570.14
5567.86
5565.55
5563.19
5560.8
5558.38
5555.93
5553.45
5550.94
5548.41
5545.87
5543.31
5540.73
5538.13
5535.52
5532.89
5530.25
5527.6
5524.94
5522.28
5519.61
5516.93
5514.26
5511.58
5508.9
5506.23
5503.55
5500.86
5498.17
5495.47
5492.76
5490.03
5487.3
5484.54
5481.77
5478.97
5476.15
5473.3
5470.43
5467.52
5464.58
5461.6
5458.59
5455.53
5452.43
5449.27
5446.07
5442.82
5439.5
5436.11
5432.66
5429.12
5425.49
5421.77
5417.96
5414.17
5410.83
5400.9
5386.37
5374.65
5365.09
5357.23
5350.22
5344.11
5340.2
5339.35
5338.19
5316.25
5265.5
5216.74
5174.26
5138.73
5110.97
5092.78
5082.91
5076.6
5069.7
5054.43
5035.39
5032.9
5038.07
5039.36
5039.21
5038.54
5037.75
5037.04
5036.52
5036.25
5684.66
5684.47
5684.08
5683.53
5682.83
5682
5681.06
5680.04
5678.95
5677.79
5676.58
5675.33
5674.03
5672.69
5671.32
5669.9
5668.43
5666.93
5665.37
5663.76
5662.1
5660.37
5658.59
5656.75
5654.84
5652.87
5650.84
5648.76
5646.63
5644.47
5642.27
5640.05
5637.8
5635.52
5633.22
5630.89
5628.54
5626.17
5623.78
5621.38
5618.97
5616.57
5614.17
5611.79
5609.42
5607.08
5604.76
5602.47
5600.21
5597.98
5595.78
5593.61
5591.47
5589.34
5587.23
5585.13
5583.03
5580.93
5578.81
5576.68
5574.52
5572.33
5570.11
5567.84
5565.54
5563.19
5560.8
5558.37
5555.9
5553.41
5550.9
5548.36
5545.81
5543.24
5540.65
5538.05
5535.43
5532.79
5530.14
5527.49
5524.82
5522.14
5519.47
5516.79
5514.12
5511.45
5508.78
5506.12
5503.45
5500.78
5498.11
5495.44
5492.75
5490.06
5487.35
5484.63
5481.89
5479.14
5476.36
5473.57
5470.75
5467.9
5465.03
5462.13
5459.2
5456.24
5453.25
5450.23
5447.18
5444.1
5440.99
5437.85
5434.69
5431.51
5428.32
5425.16
5422.09
5419.3
5417.26
5413.45
5399.83
5382.06
5366.65
5354.69
5347.1
5342.99
5340.17
5338.84
5337.17
5295.15
5236.81
5185.93
5139.6
5097.92
5063.9
5045.62
5042.16
5041.75
5039.11
5030.4
5024.45
5026.39
5028.15
5029.16
5029.44
5029.29
5028.95
5028.57
5028.28
5028.12
5681.97
5681.81
5681.51
5681.07
5680.5
5679.83
5679.05
5678.19
5677.26
5676.27
5675.22
5674.11
5672.95
5671.75
5670.49
5669.18
5667.82
5666.4
5664.93
5663.4
5661.8
5660.13
5658.4
5656.59
5654.7
5652.75
5650.72
5648.63
5646.5
5644.32
5642.11
5639.87
5637.62
5635.33
5633.02
5630.68
5628.31
5625.91
5623.5
5621.06
5618.63
5616.19
5613.77
5611.36
5608.98
5606.62
5604.29
5601.99
5599.73
5597.51
5595.33
5593.18
5591.07
5588.98
5586.91
5584.85
5582.79
5580.73
5578.65
5576.56
5574.44
5572.28
5570.08
5567.84
5565.55
5563.2
5560.81
5558.36
5555.89
5553.38
5550.85
5548.3
5545.73
5543.16
5540.56
5537.95
5535.33
5532.68
5530.02
5527.35
5524.67
5521.99
5519.31
5516.63
5513.96
5511.29
5508.63
5505.98
5503.33
5500.69
5498.04
5495.39
5492.73
5490.07
5487.4
5484.71
5482.02
5479.3
5476.58
5473.83
5471.07
5468.29
5465.49
5462.66
5459.82
5456.97
5454.09
5451.2
5448.3
5445.4
5442.49
5439.6
5436.72
5433.88
5431.1
5428.42
5425.9
5423.64
5421.9
5420.56
5404.49
5382.16
5366.29
5351.96
5341.36
5332.78
5324.67
5314.86
5297.44
5250.86
5200.73
5150.58
5100.31
5049.46
5001.08
4983.66
4998.37
5009.11
5014.6
5013.8
5015.01
5018.12
5018.94
5019.67
5020.08
5020.2
5020.15
5020.01
5019.88
5019.8
5679.35
5679.23
5678.99
5678.65
5678.2
5677.67
5677.04
5676.34
5675.57
5674.74
5673.84
5672.88
5671.87
5670.79
5669.66
5668.46
5667.21
5665.89
5664.51
5663.05
5661.53
5659.92
5658.24
5656.46
5654.6
5652.65
5650.62
5648.52
5646.36
5644.16
5641.94
5639.69
5637.43
5635.14
5632.82
5630.47
5628.07
5625.65
5623.19
5620.72
5618.25
5615.78
5613.32
5610.89
5608.48
5606.1
5603.75
5601.45
5599.19
5596.98
5594.82
5592.7
5590.62
5588.57
5586.55
5584.54
5582.53
5580.52
5578.49
5576.45
5574.37
5572.25
5570.08
5567.86
5565.58
5563.24
5560.83
5558.37
5555.87
5553.34
5550.79
5548.23
5545.65
5543.07
5540.47
5537.86
5535.22
5532.57
5529.89
5527.21
5524.51
5521.81
5519.12
5516.44
5513.76
5511.1
5508.46
5505.82
5503.19
5500.57
5497.95
5495.33
5492.7
5490.07
5487.43
5484.79
5482.13
5479.46
5476.78
5474.09
5471.39
5468.67
5465.94
5463.2
5460.44
5457.68
5454.92
5452.16
5449.41
5446.67
5443.96
5441.3
5438.69
5436.17
5433.76
5431.49
5429.41
5427.41
5424.87
5424.46
5410.67
5385.58
5364.38
5345.52
5328.71
5312.78
5296.11
5276.29
5249.42
5210.19
5164.66
5115.34
5061.59
4998.51
4946.23
4935.72
4958.53
4981.74
4996.64
5003.29
5006.15
5009.13
5009.8
5010.49
5010.99
5011.28
5011.4
5011.42
5011.41
5011.39
5676.76
5676.67
5676.5
5676.25
5675.92
5675.51
5675.04
5674.49
5673.88
5673.21
5672.46
5671.65
5670.78
5669.84
5668.83
5667.76
5666.61
5665.4
5664.11
5662.74
5661.29
5659.75
5658.12
5656.39
5654.55
5652.61
5650.56
5648.43
5646.23
5644
5641.75
5639.49
5637.23
5634.94
5632.62
5630.26
5627.84
5625.38
5622.88
5620.36
5617.83
5615.32
5612.82
5610.36
5607.92
5605.51
5603.15
5600.83
5598.57
5596.37
5594.23
5592.15
5590.11
5588.11
5586.14
5584.19
5582.24
5580.29
5578.33
5576.34
5574.31
5572.24
5570.11
5567.92
5565.66
5563.31
5560.89
5558.4
5555.86
5553.3
5550.72
5548.14
5545.56
5542.98
5540.38
5537.75
5535.11
5532.44
5529.75
5527.05
5524.33
5521.61
5518.9
5516.21
5513.53
5510.88
5508.25
5505.63
5503.03
5500.43
5497.84
5495.25
5492.65
5490.06
5487.46
5484.85
5482.23
5479.61
5476.98
5474.35
5471.7
5469.05
5466.38
5463.72
5461.05
5458.38
5455.73
5453.09
5450.47
5447.9
5445.37
5442.92
5440.55
5438.31
5436.23
5434.37
5432.79
5431.65
5429.26
5427.81
5412.7
5385.16
5360.13
5337.03
5315.18
5293.54
5270.7
5244.84
5213.8
5175.83
5132.37
5084.53
5032.22
4973.85
4936.85
4932.12
4940.27
4962.67
4982.96
4993.6
4995.09
4999.65
5000.61
5001.46
5002.08
5002.49
5002.73
5002.86
5002.91
5002.93
5674.18
5674.12
5674.01
5673.85
5673.63
5673.36
5673.03
5672.65
5672.19
5671.68
5671.09
5670.43
5669.7
5668.9
5668.02
5667.07
5666.04
5664.93
5663.74
5662.47
5661.1
5659.63
5658.06
5656.37
5654.56
5652.62
5650.55
5648.37
5646.1
5643.81
5641.53
5639.27
5637.01
5634.74
5632.44
5630.07
5627.62
5625.12
5622.56
5619.97
5617.38
5614.81
5612.27
5609.77
5607.3
5604.86
5602.47
5600.13
5597.87
5595.68
5593.56
5591.52
5589.54
5587.6
5585.7
5583.81
5581.94
5580.06
5578.16
5576.24
5574.27
5572.26
5570.18
5568.03
5565.79
5563.44
5560.99
5558.45
5555.86
5553.24
5550.63
5548.03
5545.45
5542.87
5540.28
5537.65
5535
5532.32
5529.6
5526.87
5524.13
5521.38
5518.64
5515.93
5513.26
5510.61
5508
5505.4
5502.83
5500.26
5497.7
5495.14
5492.59
5490.02
5487.46
5484.89
5482.32
5479.75
5477.17
5474.59
5472
5469.41
5466.81
5464.22
5461.63
5459.05
5456.5
5453.97
5451.48
5449.04
5446.68
5444.42
5442.27
5440.27
5438.47
5436.92
5435.7
5434.94
5433.58
5430.79
5413.09
5382.24
5353.94
5327.29
5301.45
5275.5
5248.3
5218.59
5185.09
5146.96
5104.47
5058.19
5008.9
4958.64
4931.08
4928.36
4927.27
4945.73
4971.69
4985.09
4985.34
4989.58
4991.51
4992.63
4993.37
4993.85
4994.16
4994.34
4994.44
4994.48
5671.58
5671.55
5671.51
5671.44
5671.33
5671.2
5671.02
5670.8
5670.51
5670.16
5669.73
5669.23
5668.65
5667.98
5667.24
5666.41
5665.5
5664.5
5663.42
5662.24
5660.97
5659.58
5658.08
5656.45
5654.67
5652.74
5650.63
5648.34
5645.97
5643.58
5641.26
5639
5636.78
5634.55
5632.28
5629.92
5627.44
5624.87
5622.23
5619.55
5616.87
5614.23
5611.65
5609.11
5606.61
5604.13
5601.7
5599.33
5597.05
5594.88
5592.8
5590.8
5588.89
5587.03
5585.2
5583.4
5581.61
5579.81
5577.99
5576.15
5574.26
5572.32
5570.31
5568.2
5565.99
5563.65
5561.16
5558.54
5555.85
5553.16
5550.5
5547.89
5545.32
5542.76
5540.18
5537.56
5534.9
5532.19
5529.45
5526.69
5523.9
5521.11
5518.34
5515.61
5512.93
5510.29
5507.7
5505.14
5502.6
5500.07
5497.54
5495.02
5492.5
5489.97
5487.45
5484.92
5482.4
5479.87
5477.34
5474.81
5472.28
5469.74
5467.22
5464.69
5462.18
5459.68
5457.21
5454.78
5452.4
5450.1
5447.88
5445.77
5443.81
5442.02
5440.43
5439.1
5438.11
5437.53
5436.72
5432.55
5410.24
5376.79
5346.1
5316.73
5287.85
5258.69
5228.42
5196.13
5161
5122.45
5080.37
5034.87
4986.55
4942.05
4924.7
4924.53
4923.89
4937.67
4963.3
4977.53
4980.21
4981.81
4983.18
4984.17
4984.88
4985.36
4985.68
4985.88
4985.99
4986.05
5668.93
5668.94
5668.96
5668.98
5669
5669.01
5669
5668.94
5668.83
5668.65
5668.4
5668.05
5667.62
5667.1
5666.49
5665.79
5665
5664.12
5663.15
5662.08
5660.9
5659.61
5658.2
5656.63
5654.91
5652.98
5650.84
5648.38
5645.82
5643.25
5640.9
5638.67
5636.52
5634.38
5632.19
5629.85
5627.32
5624.66
5621.91
5619.1
5616.29
5613.58
5610.96
5608.4
5605.86
5603.33
5600.84
5598.42
5596.11
5593.95
5591.91
5589.99
5588.16
5586.39
5584.66
5582.96
5581.26
5579.56
5577.83
5576.08
5574.28
5572.42
5570.49
5568.47
5566.31
5563.97
5561.42
5558.67
5555.83
5553.01
5550.3
5547.69
5545.15
5542.64
5540.1
5537.49
5534.81
5532.09
5529.31
5526.5
5523.65
5520.8
5517.97
5515.21
5512.52
5509.91
5507.35
5504.83
5502.34
5499.85
5497.36
5494.88
5492.39
5489.9
5487.41
5484.93
5482.45
5479.97
5477.49
5475.01
5472.53
5470.06
5467.59
5465.13
5462.69
5460.26
5457.87
5455.52
5453.23
5451.03
5448.94
5446.97
5445.15
5443.52
5442.1
5440.93
5440.06
5439.56
5439.09
5427.77
5399.99
5368.58
5336.96
5305.67
5274.51
5243
5210.55
5176.52
5140.32
5101.49
5059.67
5014.35
4964.01
4927.72
4921.58
4921.29
4921.69
4931.14
4955.41
4970.14
4973.46
4974.26
4975.19
4975.98
4976.58
4977.02
4977.31
4977.49
4977.59
4977.64
5666.2
5666.25
5666.34
5666.46
5666.62
5666.79
5666.95
5667.09
5667.17
5667.17
5667.09
5666.91
5666.64
5666.26
5665.79
5665.22
5664.55
5663.79
5662.94
5661.98
5660.92
5659.74
5658.42
5656.94
5655.3
5653.41
5651.33
5648.48
5645.64
5642.67
5640.39
5638.22
5636.2
5634.24
5632.2
5629.94
5627.31
5624.52
5621.62
5618.62
5615.57
5612.79
5610.19
5607.64
5605.07
5602.47
5599.88
5597.36
5595.01
5592.86
5590.88
5589.05
5587.33
5585.68
5584.07
5582.48
5580.9
5579.3
5577.68
5576.02
5574.32
5572.57
5570.75
5568.83
5566.77
5564.48
5561.87
5558.86
5555.77
5552.72
5549.97
5547.39
5544.93
5542.52
5540.06
5537.46
5534.76
5532
5529.18
5526.31
5523.39
5520.45
5517.52
5514.71
5512.03
5509.44
5506.94
5504.48
5502.04
5499.6
5497.16
5494.71
5492.25
5489.8
5487.35
5484.91
5482.47
5480.04
5477.61
5475.19
5472.76
5470.35
5467.94
5465.54
5463.15
5460.79
5458.45
5456.17
5453.96
5451.84
5449.84
5447.98
5446.29
5444.78
5443.49
5442.43
5441.62
5441.07
5440.66
5424.96
5393.38
5360.57
5327.49
5294.5
5261.52
5228.25
5194.25
5159.07
5122.28
5083.51
5042.48
4998.85
4951.81
4923.16
4919.65
4919.3
4920.07
4929.7
4951.52
4962.21
4965.94
4966.57
4967.3
4967.95
4968.44
4968.79
4969.02
4969.15
4969.23
4969.26
5663.37
5663.45
5663.61
5663.85
5664.16
5664.51
5664.88
5665.23
5665.53
5665.73
5665.83
5665.83
5665.71
5665.48
5665.14
5664.7
5664.16
5663.52
5662.79
5661.95
5661.01
5659.96
5658.75
5657.37
5655.89
5653.98
5652.57
5649.33
5644.68
5641.37
5639.75
5637.58
5635.81
5634.15
5632.41
5630.36
5627.42
5624.47
5621.42
5618.14
5614.55
5611.81
5609.33
5606.85
5604.28
5601.58
5598.81
5596.1
5593.68
5591.56
5589.69
5587.99
5586.41
5584.9
5583.43
5581.98
5580.52
5579.04
5577.53
5575.98
5574.4
5572.77
5571.09
5569.33
5567.43
5565.29
5562.7
5559.11
5555.65
5552.11
5549.45
5546.94
5544.65
5542.44
5540.13
5537.5
5534.75
5531.95
5529.09
5526.16
5523.14
5520.04
5516.92
5514.08
5511.4
5508.88
5506.46
5504.09
5501.72
5499.34
5496.94
5494.53
5492.1
5489.68
5487.26
5484.86
5482.47
5480.09
5477.71
5475.34
5472.97
5470.6
5468.25
5465.9
5463.57
5461.25
5458.97
5456.73
5454.56
5452.51
5450.58
5448.81
5447.21
5445.8
5444.61
5443.65
5442.86
5442.03
5441.63
5423.33
5388.02
5352.84
5317.93
5283.31
5248.83
5214.22
5179.15
5143.25
5106.2
5067.78
5027.91
4986.74
4944.77
4921.41
4918.92
4919.02
4919.75
4922.7
4941.14
4953.23
4957.92
4958.75
4959.49
4960.04
4960.42
4960.66
4960.8
4960.86
4960.89
4960.89
5660.39
5660.51
5660.75
5661.11
5661.59
5662.16
5662.78
5663.38
5663.92
5664.34
5664.64
5664.81
5664.84
5664.75
5664.55
5664.24
5663.82
5663.31
5662.7
5661.99
5661.19
5660.29
5659.23
5657.86
5656.88
5655.66
5653.6
5648.81
5644.09
5640.92
5638.41
5636.5
5635.28
5634.1
5632.92
5631.62
5629.39
5625.93
5620.71
5616.01
5612.64
5610.52
5608.45
5606.14
5603.57
5600.73
5597.66
5594.51
5592.01
5590
5588.29
5586.78
5585.38
5584.05
5582.75
5581.46
5580.14
5578.78
5577.39
5575.95
5574.49
5572.99
5571.48
5569.93
5568.31
5566.52
5564.51
5560.43
5554.71
5550.62
5548.74
5546.24
5544.27
5542.45
5540.48
5537.64
5534.78
5531.93
5529.04
5526.06
5522.95
5519.64
5516.03
5513.26
5510.59
5508.19
5505.92
5503.67
5501.39
5499.07
5496.72
5494.33
5491.92
5489.52
5487.14
5484.78
5482.45
5480.11
5477.79
5475.46
5473.14
5470.83
5468.53
5466.24
5463.95
5461.67
5459.4
5457.18
5455.04
5453.01
5451.14
5449.43
5447.91
5446.58
5445.48
5444.64
5444.12
5443.25
5442.17
5421.53
5382.57
5344.84
5308.07
5271.97
5236.27
5200.67
5164.86
5128.56
5091.51
5053.52
5014.62
4975.42
4938.6
4920.55
4918.72
4918.76
4919.25
4921.23
4936.43
4945.88
4949.46
4951
4951.83
4952.29
4952.52
4952.61
4952.62
4952.58
4952.54
4952.51
5657.23
5657.39
5657.71
5658.2
5658.88
5659.71
5660.64
5661.55
5662.37
5663.03
5663.53
5663.87
5664.06
5664.11
5664.03
5663.84
5663.55
5663.16
5662.67
5662.1
5661.43
5660.73
5659.97
5659.04
5657.8
5653.9
5649.49
5644.96
5641.61
5639.07
5637.43
5635.73
5634.7
5634.02
5633.53
5632.91
5629.72
5624.67
5619.24
5614.55
5611.08
5609.16
5607.76
5605.68
5603.11
5600.09
5596.54
5592.24
5589.84
5588.1
5586.67
5585.42
5584.26
5583.15
5582.05
5580.93
5579.76
5578.54
5577.26
5575.94
5574.58
5573.22
5571.88
5570.59
5569.33
5567.94
5566.47
5561.79
5554.06
5549.76
5547.15
5545
5543.71
5542.59
5541.68
5539.96
5536.27
5531.66
5529.53
5526.19
5521.83
5517.37
5514.27
5512.31
5509.48
5507.36
5505.34
5503.25
5501.08
5498.83
5496.51
5494.13
5491.72
5489.31
5486.97
5484.67
5482.39
5480.11
5477.83
5475.56
5473.29
5471.02
5468.77
5466.54
5464.3
5462.05
5459.77
5457.53
5455.37
5453.34
5451.5
5449.85
5448.38
5447.1
5446.06
5445.3
5444.87
5444.27
5442.41
5418.38
5375.87
5335.89
5297.54
5260.24
5223.61
5187.31
5151.08
5114.64
5077.75
5040.17
5001.63
4961.72
4929.66
4919.07
4918.48
4918.5
4918.52
4919.91
4933.58
4941.72
4943
4943.96
4944.5
4944.73
4944.74
4944.63
4944.46
4944.29
4944.16
4944.08
5653.85
5654.04
5654.43
5655.06
5655.95
5657.11
5658.45
5659.77
5660.92
5661.84
5662.55
5663.05
5663.38
5663.55
5663.59
5663.51
5663.33
5663.06
5662.71
5662.26
5661.66
5661.2
5660.64
5656.87
5652.09
5646.63
5642.48
5639.11
5636.72
5635.27
5634.9
5635.17
5634.27
5633.74
5633.63
5633.21
5629
5622.36
5616.52
5611.75
5608.63
5607.13
5606.95
5605.37
5602.25
5597.48
5592.12
5588.04
5586.96
5585.86
5584.86
5583.93
5583.06
5582.2
5581.33
5580.42
5579.42
5578.34
5577.16
5575.92
5574.65
5573.39
5572.2
5571.18
5570.47
5569.7
5566.27
5558.44
5551.39
5546.7
5544.38
5542.72
5542.95
5542.51
5542.04
5540.52
5536.24
5529.69
5526.28
5523.48
5519.92
5516.62
5513.16
5510.02
5507.63
5506.43
5504.78
5502.89
5500.82
5498.62
5496.33
5493.94
5491.49
5489.02
5486.73
5484.51
5482.3
5480.09
5477.86
5475.62
5473.4
5471.18
5468.98
5466.81
5464.64
5462.43
5460.08
5457.78
5455.55
5453.45
5451.66
5450.06
5448.62
5447.36
5446.34
5445.59
5445.19
5444.65
5441.89
5411.91
5366.65
5325.3
5285.95
5247.86
5210.61
5173.9
5137.49
5101.16
5064.67
5027.77
4990.03
4950.56
4923.93
4918.47
4918.19
4918.25
4918.34
4919.09
4929.29
4936.3
4936.85
4937.3
4937.47
4937.36
4937.07
4936.68
4936.29
4935.94
4935.69
4935.56
5650.24
5650.44
5650.87
5651.6
5652.71
5654.28
5656.24
5658.12
5659.64
5660.83
5661.72
5662.37
5662.81
5663.09
5663.22
5663.25
5663.17
5663.02
5662.8
5662.53
5662.16
5660.89
5655.42
5648
5642.58
5638.09
5634.7
5632.3
5630.88
5630.41
5630.99
5632.78
5633.55
5633.5
5633.11
5632.41
5627.14
5619.25
5612.74
5606.99
5603.71
5604.8
5605.33
5602.6
5596.19
5589.1
5586.07
5584.53
5584.08
5583.51
5582.94
5582.38
5581.82
5581.25
5580.64
5579.95
5579.15
5578.21
5577.1
5575.91
5574.69
5573.47
5572.34
5571.45
5570.89
5570.55
5565.14
5554.83
5546.16
5539.69
5535.49
5534.64
5537.52
5540.76
5540.75
5537.24
5530.93
5524.17
5521.45
5519.52
5516.76
5514.4
5511.25
5508.53
5506.84
5505.92
5504.46
5502.68
5500.67
5498.5
5496.21
5493.8
5491.25
5488.52
5486.39
5484.32
5482.21
5480.05
5477.86
5475.66
5473.47
5471.29
5469.15
5467.05
5465
5462.92
5460.33
5457.91
5455.57
5453.24
5451.58
5450.08
5448.66
5447.35
5446.3
5445.52
5445.09
5444.62
5431.46
5394.67
5353.5
5312.71
5273.11
5234.63
5197.06
5160.19
5123.83
5087.82
5052.02
5016.23
4980.14
4943.19
4920.84
4917.69
4917.82
4917.98
4918.2
4919.44
4924.29
4930.32
4930.77
4930.91
4930.68
4930.16
4929.46
4928.72
4928.04
4927.48
4927.09
4926.89
5646.36
5646.55
5646.96
5647.7
5648.95
5650.99
5654.08
5656.75
5658.67
5660.06
5661.09
5661.84
5662.37
5662.73
5662.95
5663.05
5663.06
5663.01
5662.92
5662.41
5657.8
5651.89
5643.97
5637.22
5632.16
5628.46
5625.94
5624.5
5624.09
5624.5
5625.85
5628.69
5631.86
5630.64
5630.84
5630.65
5623.47
5614.78
5608.2
5602.92
5600.89
5602.85
5603.4
5597.16
5587.65
5581.42
5581.46
5581.35
5581.27
5581.14
5580.97
5580.78
5580.57
5580.32
5580
5579.58
5578.99
5578.22
5577.11
5575.91
5574.69
5573.45
5572.21
5571.36
5570.76
5570.17
5563.28
5549.63
5538.73
5530.4
5524.2
5521.68
5523.4
5527.13
5532.09
5529.7
5524.47
5520.89
5519.33
5517.35
5515.12
5513.68
5511.38
5508.91
5507.32
5505.74
5504.18
5502.51
5500.38
5498.15
5495.99
5493.5
5490.25
5487.39
5485.98
5484.15
5482.13
5480.02
5477.86
5475.68
5473.5
5471.35
5469.24
5467.22
5465.37
5463.91
5460.74
5458.47
5455.07
5452.34
5451.31
5449.99
5448.57
5447.04
5445.97
5445.05
5444.55
5443.86
5423.15
5381.81
5339.98
5298.95
5259.13
5220.48
5182.82
5145.98
5109.82
5074.28
5039.34
5004.98
4971.12
4937.4
4918.59
4916.92
4917.29
4917.65
4918.14
4919.1
4920.83
4924.08
4924.98
4924.86
4924.16
4923.1
4921.88
4920.69
4919.64
4918.82
4918.27
4917.99
5642.25
5642.38
5642.67
5643.23
5644.32
5646.61
5652.26
5656.1
5658.18
5659.62
5660.7
5661.51
5662.07
5662.48
5662.75
5662.9
5662.99
5663
5659.28
5653.77
5645.84
5638.75
5631.4
5624.77
5620.37
5617.63
5616.1
5615.67
5616.47
5617.64
5619.24
5621.4
5624.21
5623.16
5623.67
5622.52
5615.13
5608.21
5602.37
5597.6
5595.79
5596.99
5595.81
5589.7
5582.01
5577.6
5577.15
5578.2
5578.5
5578.78
5579.01
5579.19
5579.33
5579.43
5579.45
5579.34
5578.97
5578.57
5577.66
5576.15
5574.49
5572.95
5571.67
5570.99
5570.03
5567.96
5559.76
5541.83
5528.72
5519
5511.65
5508.67
5508.5
5506.36
5515.72
5525.06
5521.31
5519.53
5519.39
5517.3
5514.89
5513.1
5511.63
5510.12
5503.38
5497.72
5494.59
5492.05
5489.7
5487.58
5485.51
5483.43
5481.78
5481.09
5479.83
5478.18
5476.38
5474.66
5473.45