/*--------------------------------*- C++ -*----------------------------------*\
| =========                 |                                                 |
| \\      /  F ield         | OpenFOAM: The Open Source CFD Toolbox           |
|  \\    /   O peration     | Version:  2.1.0                                 |
|   \\  /    A nd           | Web:      www.OpenFOAM.org                      |
|    \\/     M anipulation  |                                                 |
\*---------------------------------------------------------------------------*/
FoamFile
{
    version     2.0;
    format      ascii;
    class       volScalarField;
    location    "60225";
    object      so;
}
// * * * * * * * * * * * * * * * * * * * * * * * * * * * * * * * * * * * * * //

dimensions      [0 0 0 0 0 0 0];

internalField   nonuniform List<scalar> 
15000
(
0.2
0.200005
0.200005
0.200008
0.200094
0.200789
0.203268
0.208435
0.216051
0.225191
0.23499
0.244891
0.254592
0.263948
0.272894
0.281409
0.289494
0.297161
0.304427
0.311313
0.31784
0.32403
0.329906
0.335488
0.340797
0.345854
0.350677
0.355286
0.359695
0.363922
0.367982
0.371887
0.375651
0.379286
0.382801
0.386208
0.389515
0.39273
0.395863
0.398921
0.401912
0.404841
0.407715
0.41054
0.413319
0.416056
0.418754
0.421416
0.424044
0.426638
0.4292
0.431731
0.434229
0.436696
0.439129
0.441529
0.443895
0.446225
0.448519
0.450776
0.452995
0.455176
0.457319
0.459424
0.461491
0.463521
0.465514
0.467473
0.469397
0.471289
0.473149
0.474979
0.476781
0.478555
0.480303
0.482025
0.483725
0.485401
0.487056
0.488691
0.490306
0.491901
0.493478
0.495037
0.496579
0.498102
0.499608
0.501097
0.502568
0.50402
0.505454
0.50687
0.508265
0.509641
0.510996
0.512329
0.513639
0.514925
0.516187
0.517423
0.518632
0.519813
0.520964
0.522085
0.523175
0.524231
0.525255
0.526244
0.527198
0.528117
0.529001
0.529851
0.530668
0.531451
0.532204
0.532927
0.533622
0.534289
0.534932
0.535553
0.536157
0.536752
0.537348
0.537961
0.538606
0.5393
0.540051
0.540838
0.541588
0.542209
0.542683
0.543031
0.543283
0.543535
0.54379
0.54405
0.544319
0.544598
0.544889
0.545195
0.545522
0.545877
0.54627
0.546718
0.547242
0.547875
0.548675
0.549752
0.551379
0.554648
0.200005
0.200009
0.200008
0.200016
0.200188
0.201226
0.204334
0.210132
0.218143
0.227432
0.237222
0.247038
0.256626
0.265862
0.274694
0.283105
0.291097
0.298682
0.305875
0.312696
0.319166
0.325305
0.331134
0.336674
0.341945
0.346966
0.351757
0.356334
0.360715
0.364914
0.368948
0.372829
0.376569
0.380181
0.383675
0.387061
0.390347
0.393543
0.396657
0.399697
0.402669
0.405581
0.408439
0.411248
0.414012
0.416734
0.419419
0.422068
0.424683
0.427266
0.429818
0.432339
0.434829
0.437288
0.439715
0.44211
0.44447
0.446797
0.449087
0.451341
0.453558
0.455737
0.457878
0.459981
0.462046
0.464074
0.466066
0.468022
0.469945
0.471834
0.473693
0.475521
0.47732
0.479091
0.480836
0.482557
0.484253
0.485928
0.487581
0.489213
0.490826
0.49242
0.493995
0.495553
0.497093
0.498615
0.500121
0.50161
0.503081
0.504535
0.505971
0.507388
0.508787
0.510167
0.511527
0.512866
0.514184
0.51548
0.516754
0.518003
0.519228
0.520427
0.5216
0.522745
0.523863
0.524954
0.526016
0.52705
0.528057
0.529037
0.529993
0.530927
0.531841
0.532737
0.533619
0.534488
0.535347
0.536194
0.537032
0.537861
0.538691
0.539542
0.540443
0.541441
0.542592
0.543964
0.545604
0.547472
0.549291
0.550617
0.55148
0.551985
0.552232
0.552383
0.552444
0.552434
0.552393
0.552335
0.552251
0.55212
0.551935
0.551708
0.551466
0.551248
0.551096
0.55106
0.551203
0.551639
0.552639
0.555293
0.200005
0.200009
0.200008
0.200057
0.200483
0.202219
0.206306
0.212904
0.22132
0.230694
0.240392
0.250041
0.259441
0.268496
0.277162
0.285424
0.293285
0.300754
0.307846
0.314577
0.320967
0.327033
0.332797
0.338277
0.343493
0.348463
0.353205
0.357736
0.362074
0.366232
0.370227
0.37407
0.377774
0.381351
0.384811
0.388163
0.391418
0.394583
0.397666
0.400677
0.403621
0.406507
0.409339
0.412123
0.414864
0.417564
0.420228
0.422858
0.425456
0.428024
0.430561
0.43307
0.435549
0.437998
0.440417
0.442805
0.44516
0.447481
0.449767
0.452018
0.454231
0.456407
0.458545
0.460645
0.462708
0.464733
0.466721
0.468675
0.470593
0.472479
0.474333
0.476157
0.477952
0.479719
0.48146
0.483176
0.484868
0.486538
0.488187
0.489816
0.491425
0.493015
0.494588
0.496143
0.497681
0.499202
0.500707
0.502196
0.503668
0.505123
0.506561
0.507982
0.509386
0.510771
0.512139
0.513487
0.514816
0.516125
0.517413
0.51868
0.519925
0.521148
0.522349
0.523526
0.524682
0.525816
0.526928
0.528022
0.529098
0.530161
0.531213
0.532259
0.533306
0.53436
0.535426
0.536513
0.537623
0.538757
0.539912
0.541081
0.542273
0.54352
0.544886
0.546465
0.548388
0.550814
0.553891
0.557634
0.561305
0.563397
0.56457
0.565175
0.565404
0.56536
0.565041
0.564482
0.563851
0.563203
0.562488
0.561633
0.560602
0.559429
0.558182
0.556945
0.555802
0.554829
0.554103
0.553738
0.554002
0.555978
0.200007
0.200015
0.200055
0.200307
0.201381
0.204259
0.20952
0.216871
0.225563
0.234899
0.244407
0.253811
0.262962
0.271784
0.280241
0.288319
0.296018
0.303345
0.310311
0.316931
0.323221
0.329197
0.334879
0.340283
0.345428
0.350331
0.355011
0.359483
0.363764
0.367868
0.37181
0.375603
0.379258
0.382788
0.386202
0.38951
0.392722
0.395845
0.398888
0.401859
0.404766
0.407615
0.410412
0.413163
0.415872
0.418544
0.42118
0.423785
0.42636
0.428907
0.431426
0.433918
0.436384
0.438821
0.44123
0.443609
0.445957
0.448273
0.450554
0.452801
0.455011
0.457184
0.459319
0.461416
0.463475
0.465496
0.46748
0.469429
0.471343
0.473224
0.475072
0.47689
0.478678
0.48044
0.482174
0.483884
0.485571
0.487235
0.488878
0.490501
0.492105
0.493691
0.495259
0.496811
0.498346
0.499865
0.501369
0.502857
0.50433
0.505787
0.507228
0.508653
0.510062
0.511454
0.512831
0.51419
0.515532
0.516857
0.518163
0.519452
0.520722
0.521974
0.523208
0.524425
0.525626
0.526813
0.527988
0.529154
0.530316
0.531479
0.532651
0.533841
0.53506
0.536322
0.537644
0.539044
0.540539
0.542135
0.543817
0.545529
0.547254
0.54904
0.550996
0.553281
0.556118
0.559793
0.564616
0.570916
0.576982
0.57894
0.579946
0.58046
0.580659
0.580427
0.579672
0.578345
0.576996
0.575739
0.574413
0.572809
0.570812
0.568508
0.566024
0.563517
0.561141
0.559023
0.557261
0.555974
0.555426
0.556689
0.200084
0.200171
0.200453
0.201341
0.203584
0.207841
0.214152
0.222005
0.230764
0.239922
0.249148
0.258246
0.267102
0.275654
0.283872
0.291739
0.299254
0.306419
0.313242
0.319734
0.325909
0.331781
0.337366
0.342681
0.347742
0.352566
0.35717
0.361569
0.36578
0.369817
0.373695
0.377425
0.381021
0.384492
0.38785
0.391103
0.39426
0.397331
0.400323
0.403245
0.406104
0.408907
0.41166
0.414369
0.417038
0.419672
0.422274
0.424847
0.427393
0.429914
0.432411
0.434883
0.437332
0.439755
0.442153
0.444522
0.446863
0.449173
0.45145
0.453692
0.455899
0.458069
0.460201
0.462294
0.464349
0.466366
0.468346
0.470288
0.472196
0.47407
0.475911
0.477721
0.479502
0.481255
0.482982
0.484684
0.486363
0.48802
0.489655
0.491271
0.492868
0.494448
0.496011
0.497557
0.499088
0.500605
0.502107
0.503594
0.505067
0.506526
0.50797
0.509399
0.510815
0.512216
0.513602
0.514975
0.516332
0.517675
0.519002
0.520316
0.521615
0.5229
0.524173
0.525436
0.52669
0.527939
0.529186
0.530437
0.5317
0.532983
0.534298
0.535663
0.537097
0.53863
0.540299
0.542151
0.544236
0.546593
0.549175
0.551711
0.554122
0.556496
0.559012
0.561909
0.565498
0.570176
0.576411
0.5853
0.592663
0.592938
0.59366
0.593986
0.594189
0.593996
0.593133
0.591004
0.589087
0.58762
0.58614
0.584186
0.581442
0.578107
0.574393
0.570521
0.566781
0.563395
0.560507
0.558243
0.556856
0.557409
0.2007
0.201107
0.202059
0.204071
0.207693
0.213121
0.220094
0.228123
0.236744
0.245609
0.254489
0.26324
0.271773
0.280035
0.287996
0.295638
0.302954
0.309944
0.316612
0.322965
0.329014
0.334771
0.340249
0.345464
0.35043
0.355163
0.359679
0.363994
0.368123
0.372082
0.375883
0.37954
0.383064
0.386466
0.389757
0.392944
0.396037
0.399045
0.401976
0.404838
0.407639
0.410386
0.413085
0.415742
0.418363
0.420951
0.423511
0.426045
0.428556
0.431046
0.433515
0.435964
0.438393
0.4408
0.443185
0.445544
0.447877
0.450181
0.452454
0.454693
0.456897
0.459065
0.461194
0.463284
0.465335
0.467347
0.46932
0.471256
0.473156
0.475021
0.476853
0.478654
0.480425
0.482169
0.483886
0.485579
0.487248
0.488895
0.490521
0.492128
0.493717
0.495288
0.496844
0.498384
0.49991
0.501422
0.502921
0.504407
0.50588
0.507341
0.508789
0.510223
0.511645
0.513055
0.514454
0.51584
0.517215
0.518577
0.519929
0.52127
0.522602
0.523925
0.525242
0.526556
0.527869
0.529187
0.530516
0.531864
0.533241
0.534661
0.536144
0.537717
0.539415
0.541294
0.543426
0.545914
0.548892
0.552505
0.556654
0.560284
0.563352
0.566125
0.568913
0.572036
0.57585
0.580782
0.587321
0.597767
0.601744
0.609859
0.617144
0.624482
0.628228
0.624409
0.614577
0.595722
0.594497
0.593992
0.593423
0.592265
0.589762
0.586233
0.581986
0.577074
0.572109
0.567536
0.563585
0.560398
0.558223
0.558115
0.202907
0.20392
0.205835
0.20903
0.213726
0.219834
0.227041
0.234973
0.243308
0.251808
0.260308
0.268695
0.276896
0.284861
0.292559
0.29997
0.307082
0.313892
0.320398
0.326607
0.332524
0.338158
0.343523
0.348629
0.353491
0.358124
0.362542
0.366762
0.370798
0.374667
0.378381
0.381953
0.385395
0.388718
0.391931
0.395042
0.398061
0.400996
0.403855
0.406647
0.409379
0.412059
0.414694
0.41729
0.419852
0.422385
0.424893
0.427381
0.42985
0.432303
0.43474
0.437162
0.439568
0.441957
0.444327
0.446676
0.449001
0.451299
0.453568
0.455806
0.458008
0.460174
0.462301
0.464389
0.466436
0.468442
0.470409
0.472336
0.474227
0.476082
0.477903
0.479693
0.481453
0.483185
0.484891
0.486572
0.48823
0.489865
0.49148
0.493076
0.494654
0.496216
0.497762
0.499294
0.500813
0.50232
0.503815
0.505299
0.506772
0.508234
0.509685
0.511125
0.512555
0.513975
0.515385
0.516787
0.51818
0.519565
0.520943
0.522314
0.523681
0.525046
0.526411
0.527781
0.529159
0.530554
0.531972
0.533426
0.53493
0.536506
0.538181
0.539998
0.542015
0.544322
0.54705
0.550395
0.55465
0.560265
0.567152
0.571783
0.575081
0.577772
0.580333
0.583121
0.586463
0.590695
0.596167
0.606877
0.633479
0.780029
0.798841
0.799972
0.790609
0.679927
0.682478
0.686031
0.674833
0.662569
0.642177
0.621027
0.594547
0.591495
0.587858
0.582305
0.57642
0.570965
0.566205
0.562285
0.559456
0.558786
0.207553
0.209204
0.211948
0.215944
0.221193
0.227517
0.234645
0.242308
0.25028
0.258386
0.2665
0.274527
0.282402
0.290076
0.297516
0.304699
0.31161
0.31824
0.324586
0.330648
0.336432
0.341942
0.347189
0.352182
0.356934
0.361458
0.36577
0.369884
0.373817
0.377585
0.3812
0.384678
0.388028
0.391262
0.394387
0.397413
0.400347
0.403198
0.405975
0.408685
0.411337
0.413939
0.416497
0.41902
0.421512
0.42398
0.426428
0.42886
0.431279
0.433688
0.436087
0.438477
0.440857
0.443225
0.44558
0.447917
0.450235
0.45253
0.454797
0.457033
0.459236
0.461402
0.463529
0.465614
0.467658
0.469659
0.471618
0.473537
0.475417
0.47726
0.479068
0.480845
0.482592
0.484311
0.486003
0.487671
0.489315
0.490937
0.492538
0.49412
0.495685
0.497234
0.498769
0.500291
0.501801
0.503301
0.504791
0.506271
0.507743
0.509206
0.510661
0.512108
0.513545
0.514975
0.516399
0.517817
0.51923
0.520639
0.522044
0.523448
0.524853
0.526262
0.527679
0.529108
0.530557
0.532033
0.533549
0.535119
0.536764
0.538513
0.540407
0.542505
0.544897
0.547716
0.551166
0.555569
0.561476
0.569997
0.581415
0.585978
0.588739
0.590812
0.592713
0.594721
0.597054
0.599928
0.603593
0.615078
0.649913
0.728486
0.793651
0.799765
0.799911
0.794548
0.792846
0.791365
0.787317
0.78446
0.684545
0.672482
0.626785
0.605728
0.589302
0.584111
0.578652
0.573194
0.568143
0.563797
0.560508
0.559407
0.214462
0.216548
0.21976
0.224107
0.229491
0.23573
0.242609
0.249927
0.257515
0.265234
0.272978
0.280666
0.288233
0.295633
0.302829
0.309795
0.316514
0.322972
0.329164
0.335086
0.34074
0.346129
0.351258
0.356137
0.360775
0.365185
0.369382
0.373382
0.377201
0.380856
0.384363
0.387734
0.390983
0.394117
0.397146
0.400077
0.402917
0.405674
0.408356
0.410973
0.413531
0.416041
0.41851
0.420946
0.423356
0.425747
0.428122
0.430488
0.432848
0.435205
0.437559
0.439912
0.442263
0.444608
0.446946
0.449273
0.451584
0.453876
0.456143
0.458381
0.460587
0.462756
0.464884
0.46697
0.469012
0.471008
0.47296
0.474868
0.476735
0.478565
0.480358
0.48212
0.483851
0.485554
0.487231
0.488883
0.490511
0.492117
0.493702
0.495268
0.496817
0.498351
0.499872
0.50138
0.502879
0.50437
0.505853
0.507328
0.508798
0.510262
0.51172
0.513172
0.514616
0.516057
0.517495
0.51893
0.520364
0.521797
0.523232
0.524671
0.526116
0.527572
0.529044
0.530537
0.532061
0.533626
0.535247
0.536944
0.538743
0.540685
0.542824
0.545243
0.548062
0.551463
0.555723
0.56129
0.569028
0.581022
0.598223
0.601486
0.60383
0.605278
0.606424
0.607306
0.608127
0.609096
0.610384
0.625932
0.678712
0.760684
0.796735
0.799873
0.799996
0.79987
0.799779
0.799664
0.799455
0.799374
0.786695
0.783992
0.754998
0.610786
0.589604
0.584812
0.579771
0.574541
0.569479
0.564944
0.561376
0.559976
0.222795
0.225086
0.22846
0.232853
0.238139
0.244152
0.25072
0.257684
0.264904
0.272267
0.279676
0.287056
0.294345
0.301496
0.30847
0.315239
0.321781
0.328082
0.334133
0.339926
0.34546
0.350735
0.355753
0.360521
0.365045
0.369338
0.373414
0.377289
0.380982
0.384513
0.387899
0.391154
0.394291
0.397318
0.400242
0.403069
0.405805
0.408456
0.411032
0.41354
0.41599
0.418393
0.420756
0.42309
0.425403
0.427701
0.42999
0.432277
0.434566
0.436861
0.439163
0.441473
0.443789
0.446109
0.448429
0.450745
0.453051
0.455342
0.457613
0.459857
0.462069
0.464245
0.466379
0.468469
0.47051
0.472503
0.474447
0.476344
0.478197
0.480009
0.481785
0.483528
0.485242
0.486927
0.488586
0.490219
0.491829
0.493417
0.494983
0.49653
0.498059
0.499574
0.501077
0.50257
0.504054
0.505533
0.507006
0.508476
0.509942
0.511405
0.512865
0.514323
0.515776
0.517227
0.518678
0.520131
0.521586
0.523046
0.524512
0.525988
0.527476
0.528983
0.530513
0.532075
0.53368
0.53534
0.537075
0.538909
0.540879
0.543035
0.545448
0.548224
0.551513
0.555538
0.560633
0.567336
0.576755
0.591677
0.611016
0.637184
0.656946
0.679444
0.716432
0.757943
0.760587
0.729597
0.660025
0.665928
0.729514
0.794214
0.799706
0.799989
0.8
0.799997
0.799994
0.799988
0.799981
0.799979
0.799459
0.799282
0.795868
0.594612
0.589517
0.585185
0.58025
0.575329
0.570382
0.565801
0.562084
0.560496
0.231728
0.234071
0.237434
0.241727
0.246821
0.252572
0.258835
0.265475
0.272373
0.279425
0.286546
0.29366
0.300709
0.307643
0.314423
0.32102
0.327409
0.333574
0.339503
0.345186
0.350617
0.355793
0.360713
0.365379
0.369796
0.373972
0.377921
0.381662
0.385216
0.388608
0.391859
0.394986
0.398001
0.400912
0.403723
0.406438
0.40906
0.411594
0.414047
0.41643
0.418754
0.42103
0.423269
0.425482
0.427678
0.429865
0.432051
0.434243
0.436447
0.438667
0.440906
0.443165
0.445441
0.447733
0.450034
0.452339
0.454642
0.456937
0.459215
0.461469
0.463694
0.465883
0.468028
0.470126
0.472179
0.47418
0.476122
0.478005
0.479841
0.481633
0.483387
0.485108
0.4868
0.488465
0.490104
0.491718
0.493306
0.494872
0.496415
0.497938
0.499443
0.500934
0.502413
0.503884
0.505349
0.506811
0.508271
0.509731
0.511191
0.512652
0.514113
0.515575
0.517038
0.518498
0.519964
0.521434
0.522912
0.5244
0.525899
0.527414
0.528948
0.530508
0.532101
0.533736
0.535427
0.53719
0.539049
0.541035
0.543193
0.545586
0.548302
0.551464
0.55525
0.559909
0.565813
0.573565
0.584525
0.602098
0.620645
0.674101
0.753038
0.798227
0.799979
0.799804
0.795733
0.793201
0.796775
0.776327
0.790957
0.799314
0.799969
0.799999
0.8
0.8
0.8
0.8
0.799999
0.799999
0.799987
0.799986
0.755597
0.594064
0.589544
0.585476
0.58068
0.57585
0.571019
0.566453
0.562672
0.560978
0.240712
0.24303
0.246312
0.25046
0.255354
0.260864
0.266865
0.273237
0.279871
0.286673
0.293558
0.300456
0.307307
0.314064
0.320686
0.327142
0.333408
0.339465
0.345299
0.350898
0.356253
0.361356
0.366201
0.370785
0.375107
0.379173
0.382993
0.38659
0.389989
0.393222
0.396319
0.399302
0.402185
0.404973
0.407665
0.410261
0.412758
0.415159
0.417472
0.419709
0.421882
0.424007
0.426097
0.428165
0.43022
0.432273
0.434333
0.436409
0.438508
0.440637
0.442801
0.444998
0.447228
0.449487
0.451767
0.454063
0.456366
0.458668
0.460959
0.463232
0.465477
0.467686
0.469852
0.471988
0.474069
0.476088
0.478037
0.479915
0.481728
0.483494
0.48522
0.486914
0.48858
0.49022
0.491834
0.493424
0.494987
0.496526
0.49804
0.499533
0.501007
0.502466
0.503914
0.505355
0.506794
0.508234
0.509676
0.511122
0.512573
0.514028
0.515489
0.516954
0.518424
0.519893
0.521371
0.52286
0.524361
0.525876
0.52741
0.528966
0.530549
0.532166
0.533826
0.53554
0.537325
0.539202
0.541198
0.543354
0.545722
0.548376
0.551418
0.554985
0.559268
0.564533
0.571174
0.579867
0.592312
0.612591
0.627796
0.720409
0.798107
0.799978
0.8
0.8
0.799949
0.799849
0.799864
0.798662
0.799418
0.799964
0.799998
0.8
0.8
0.8
0.8
0.8
0.8
0.8
0.8
0.797434
0.663938
0.594156
0.589705
0.585729
0.581067
0.576299
0.5715
0.566972
0.563176
0.561434
0.249435
0.251703
0.254892
0.258906
0.263634
0.268957
0.274761
0.280934
0.287375
0.293991
0.300702
0.307439
0.314143
0.320766
0.327269
0.333623
0.339803
0.345788
0.351565
0.357118
0.362436
0.367506
0.372315
0.376854
0.381112
0.385086
0.388782
0.392221
0.39544
0.398485
0.401402
0.40422
0.406956
0.409613
0.412182
0.414651
0.417013
0.419265
0.421415
0.423477
0.425468
0.427409
0.429317
0.431207
0.43309
0.434977
0.43688
0.438811
0.440779
0.442795
0.444864
0.446986
0.449161
0.451381
0.453639
0.455927
0.458233
0.460548
0.46286
0.46516
0.467437
0.469681
0.471911
0.474095
0.47622
0.47827
0.480234
0.482107
0.483892
0.485624
0.487315
0.488974
0.490609
0.49222
0.493808
0.495371
0.496906
0.498413
0.499894
0.501349
0.502784
0.504202
0.505609
0.507012
0.508416
0.509826
0.511244
0.512671
0.514109
0.515556
0.517013
0.518478
0.519954
0.521438
0.522927
0.524433
0.525956
0.5275
0.529069
0.530668
0.532303
0.533983
0.535718
0.537522
0.539415
0.541421
0.543575
0.545922
0.548523
0.551458
0.554837
0.558803
0.56355
0.569348
0.576611
0.586105
0.600066
0.623761
0.634763
0.764855
0.798666
0.79997
0.8
0.8
0.799999
0.799997
0.799996
0.799958
0.799981
0.799999
0.8
0.8
0.8
0.8
0.8
0.8
0.8
0.799997
0.799762
0.78376
0.639681
0.594318
0.589888
0.585947
0.581378
0.576689
0.57194
0.567419
0.563624
0.561872
0.257738
0.259957
0.263073
0.266993
0.271611
0.276818
0.282502
0.288556
0.294881
0.301385
0.307989
0.314624
0.321235
0.327774
0.334205
0.340501
0.346638
0.3526
0.358369
0.363931
0.369271
0.374372
0.379213
0.383773
0.388108
0.39213
0.39572
0.398986
0.401983
0.404783
0.407462
0.410069
0.412627
0.415134
0.417568
0.4199
0.422107
0.42418
0.426126
0.427962
0.429716
0.431416
0.433087
0.434747
0.436408
0.438081
0.439779
0.441519
0.443316
0.445183
0.447129
0.449156
0.45126
0.453434
0.455667
0.457947
0.460261
0.462596
0.464939
0.46728
0.469604
0.471923
0.474231
0.4765
0.47871
0.480833
0.482841
0.484716
0.486464
0.488147
0.489787
0.4914
0.492994
0.494572
0.49613
0.497662
0.499165
0.500635
0.502073
0.50348
0.504861
0.506223
0.507573
0.508921
0.510276
0.511643
0.513025
0.514426
0.515843
0.517277
0.518725
0.520189
0.521667
0.523159
0.524658
0.52618
0.527727
0.529303
0.530913
0.532562
0.534258
0.536012
0.537836
0.539747
0.541768
0.543927
0.546262
0.548822
0.551672
0.554895
0.558599
0.562926
0.568064
0.574278
0.581995
0.592075
0.607358
0.63401
0.693648
0.779552
0.79947
0.79999
0.8
0.8
0.8
0.8
0.8
0.799999
0.8
0.8
0.8
0.8
0.8
0.8
0.8
0.8
0.8
0.799991
0.799575
0.783892
0.622531
0.594342
0.590004
0.586112
0.581635
0.577023
0.572329
0.567841
0.564059
0.562304
0.265543
0.267729
0.270806
0.274687
0.279268
0.28444
0.290093
0.296119
0.302414
0.308886
0.315454
0.322052
0.328627
0.335136
0.341547
0.347837
0.353987
0.359983
0.365813
0.371463
0.376916
0.382152
0.387278
0.392521
0.397663
0.402487
0.406647
0.409635
0.412194
0.414465
0.41662
0.418765
0.420949
0.423165
0.425361
0.427463
0.429408
0.43117
0.432752
0.434181
0.435504
0.436777
0.438039
0.439314
0.440612
0.441942
0.443318
0.444761
0.446293
0.447935
0.449699
0.451586
0.453589
0.455698
0.457895
0.460164
0.462488
0.46485
0.467237
0.469633
0.472027
0.474462
0.4769
0.479325
0.48171
0.484009
0.486148
0.488057
0.489749
0.491354
0.49291
0.494449
0.495985
0.497517
0.499038
0.500534
0.501995
0.503417
0.504797
0.506136
0.507439
0.508714
0.509976
0.511237
0.512513
0.513812
0.515139
0.516496
0.51788
0.51929
0.520722
0.522176
0.523651
0.525147
0.526661
0.528195
0.529765
0.531376
0.533031
0.53474
0.536511
0.538355
0.540289
0.54233
0.544503
0.546838
0.549374
0.552159
0.555257
0.558748
0.562734
0.567347
0.572765
0.57925
0.587235
0.597662
0.613938
0.641546
0.728757
0.786793
0.799661
0.799994
0.8
0.8
0.8
0.8
0.8
0.8
0.8
0.8
0.8
0.8
0.8
0.8
0.8
0.8
0.8
0.79999
0.799682
0.792285
0.599527
0.594013
0.590016
0.586233
0.581862
0.577327
0.572694
0.568247
0.56449
0.562736
0.272816
0.274991
0.278075
0.281982
0.286607
0.291841
0.297566
0.303665
0.310026
0.316553
0.323163
0.329792
0.336393
0.34293
0.349379
0.355724
0.361955
0.368067
0.374052
0.379907
0.385617
0.391428
0.397759
0.404389
0.411385
0.418286
0.424579
0.427743
0.429523
0.430691
0.431733
0.432912
0.43436
0.436077
0.437942
0.439754
0.441321
0.442572
0.4435
0.444151
0.444619
0.445039
0.445502
0.446043
0.446663
0.447361
0.448147
0.449051
0.45011
0.451355
0.452803
0.454452
0.456286
0.458283
0.460417
0.462661
0.464991
0.467385
0.469827
0.4723
0.474818
0.477414
0.480068
0.482779
0.48553
0.488253
0.490761
0.492784
0.494386
0.495842
0.497242
0.498645
0.500079
0.501544
0.503018
0.504468
0.505875
0.507229
0.508522
0.509756
0.510932
0.512062
0.513168
0.514277
0.515412
0.516591
0.51782
0.519099
0.520423
0.521788
0.523187
0.524618
0.526078
0.527569
0.529092
0.530633
0.532224
0.533872
0.535583
0.537363
0.539224
0.541178
0.543242
0.545435
0.547781
0.550308
0.55305
0.55605
0.559366
0.563068
0.567252
0.572041
0.577607
0.584204
0.592282
0.602856
0.619904
0.647032
0.757529
0.796532
0.799907
0.799998
0.8
0.8
0.8
0.8
0.8
0.8
0.8
0.8
0.8
0.8
0.8
0.8
0.8
0.8
0.799999
0.799974
0.799058
0.774946
0.59884
0.593909
0.590094
0.58638
0.582097
0.577632
0.573055
0.568649
0.564921
0.563169
0.279553
0.281751
0.284896
0.288895
0.293638
0.299025
0.30498
0.311274
0.317812
0.32449
0.331224
0.337955
0.344646
0.351273
0.357825
0.364299
0.3707
0.377036
0.383319
0.38956
0.395932
0.403495
0.412129
0.421847
0.432888
0.443354
0.454246
0.457935
0.458442
0.457283
0.456041
0.455299
0.455417
0.456459
0.458348
0.461256
0.462467
0.462976
0.462771
0.461906
0.460581
0.459204
0.458027
0.457111
0.456418
0.455898
0.455544
0.455397
0.455534
0.456016
0.456866
0.45807
0.459591
0.461382
0.463392
0.465577
0.467897
0.470322
0.472829
0.475403
0.478106
0.48094
0.483937
0.487137
0.490582
0.494221
0.497639
0.499872
0.501309
0.502452
0.503529
0.50466
0.505912
0.507286
0.508721
0.510135
0.511484
0.512753
0.513931
0.515009
0.515985
0.516868
0.517694
0.518524
0.519404
0.520365
0.521418
0.52256
0.52378
0.525064
0.526401
0.527784
0.529209
0.530678
0.532192
0.533749
0.53535
0.53703
0.538794
0.540651
0.54261
0.544687
0.546895
0.549254
0.551782
0.554499
0.557427
0.560599
0.564061
0.567879
0.572142
0.576973
0.58254
0.589103
0.59713
0.607723
0.625534
0.651012
0.775377
0.799509
0.799991
0.8
0.8
0.8
0.8
0.8
0.8
0.8
0.8
0.8
0.8
0.8
0.8
0.8
0.8
0.8
0.799999
0.799955
0.796926
0.695816
0.598913
0.59403
0.590273
0.586588
0.582368
0.577959
0.573429
0.569059
0.565355
0.563605
0.285778
0.288057
0.291344
0.295542
0.300529
0.306175
0.312385
0.318909
0.325637
0.332798
0.339799
0.346707
0.353553
0.360337
0.367068
0.373764
0.380454
0.387174
0.39397
0.400903
0.409607
0.420454
0.433852
0.447815
0.463768
0.475147
0.488821
0.491276
0.490955
0.486888
0.483114
0.48034
0.479239
0.480173
0.484687
0.491293
0.494029
0.494209
0.492918
0.49006
0.485796
0.481394
0.477584
0.474441
0.471757
0.469331
0.467086
0.465099
0.463566
0.462651
0.462413
0.462821
0.463789
0.465217
0.467007
0.469077
0.47136
0.473809
0.476392
0.479096
0.482014
0.48517
0.488645
0.492562
0.497105
0.50233
0.507449
0.509693
0.510834
0.511341
0.511836
0.512505
0.513495
0.51482
0.5166
0.518214
0.519543
0.520739
0.521794
0.522684
0.523381
0.523873
0.524209
0.524547
0.524978
0.525564
0.526325
0.527246
0.5283
0.529457
0.530694
0.531995
0.533353
0.53477
0.536253
0.537809
0.5394
0.5411
0.542913
0.544844
0.546903
0.549103
0.551456
0.553976
0.556674
0.559553
0.562615
0.565875
0.569372
0.573169
0.577365
0.58209
0.58752
0.593924
0.601798
0.612377
0.631326
0.654092
0.779802
0.79951
0.799991
0.8
0.8
0.8
0.8
0.8
0.8
0.8
0.8
0.8
0.8
0.8
0.8
0.8
0.8
0.799999
0.799982
0.798752
0.769565
0.649759
0.599093
0.594246
0.590525
0.586861
0.582691
0.578325
0.573831
0.569484
0.565793
0.564041
0.291502
0.293926
0.297453
0.301982
0.307369
0.31345
0.320068
0.326963
0.334014
0.341341
0.348545
0.356269
0.363351
0.370368
0.377371
0.384415
0.391569
0.398922
0.406595
0.415784
0.42834
0.445673
0.465546
0.48041
0.497548
0.502942
0.507672
0.527931
0.532788
0.498392
0.496199
0.49433
0.493858
0.49592
0.504034
0.515145
0.518325
0.520391
0.519998
0.517375
0.511348
0.504658
0.499115
0.494674
0.490731
0.486784
0.482607
0.478323
0.474441
0.471459
0.469593
0.468815
0.468969
0.469871
0.471346
0.473253
0.475482
0.477956
0.480631
0.483495
0.48666
0.490175
0.494182
0.498916
0.504802
0.511927
0.518591
0.52024
0.521024
0.520566
0.520387
0.520538
0.521316
0.522856
0.526276
0.528444
0.529985
0.531187
0.532204
0.532982
0.533434
0.533447
0.53301
0.532582
0.532317
0.532344
0.532696
0.533328
0.534175
0.535176
0.536286
0.537475
0.538731
0.540058
0.541475
0.542994
0.544621
0.546318
0.548161
0.55015
0.55229
0.554589
0.557059
0.559709
0.562538
0.56553
0.568644
0.571878
0.575266
0.578881
0.582855
0.587341
0.592518
0.598656
0.606299
0.61691
0.638075
0.658174
0.780331
0.799467
0.79999
0.8
0.8
0.8
0.8
0.8
0.8
0.8
0.8
0.8
0.8
0.8
0.8
0.8
0.799974
0.799746
0.796093
0.770958
0.710983
0.625511
0.599159
0.594465
0.590822
0.5872
0.583079
0.578749
0.574274
0.569933
0.566238
0.564479
0.296745
0.299389
0.303277
0.308308
0.31431
0.321051
0.328278
0.335704
0.343203
0.350807
0.358307
0.366119
0.374033
0.38169
0.389119
0.396703
0.404604
0.413018
0.422225
0.436646
0.455713
0.481018
0.503217
0.511295
0.518289
0.624727
0.770009
0.790951
0.773423
0.749479
0.551758
0.50616
0.505124
0.508535
0.522416
0.529776
0.566218
0.668017
0.684918
0.571857
0.521493
0.516419
0.512742
0.509971
0.507218
0.503757
0.499085
0.493131
0.486822
0.481481
0.477722
0.475573
0.474807
0.475131
0.47628
0.478039
0.480242
0.482774
0.485569
0.488618
0.492008
0.495818
0.500241
0.505643
0.512773
0.521062
0.525952
0.538083
0.545616
0.527487
0.527083
0.526896
0.527667
0.530435
0.537549
0.541287
0.543027
0.544312
0.546332
0.547191
0.547569
0.547069
0.545119
0.543315
0.541855
0.540988
0.540765
0.541043
0.541662
0.542497
0.543466
0.544516
0.545623
0.5468
0.548097
0.549543
0.551146
0.552837
0.554679
0.556676
0.558828
0.561146
0.563646
0.566346
0.569253
0.572335
0.575433
0.578531
0.581667
0.584928
0.588547
0.592701
0.597548
0.603322
0.610612
0.62118
0.645265
0.754631
0.797458
0.799946
0.799999
0.8
0.8
0.8
0.8
0.8
0.8
0.8
0.8
0.8
0.8
0.8
0.8
0.8
0.799976
0.799508
0.791487
0.754606
0.685856
0.603821
0.598904
0.594661
0.591175
0.587623
0.583554
0.579248
0.574754
0.570413
0.566704
0.564921
0.301536
0.304485
0.308889
0.314664
0.321595
0.32932
0.33742
0.345566
0.353636
0.361632
0.369505
0.377502
0.385574
0.394275
0.402862
0.411347
0.420504
0.430789
0.445644
0.47044
0.493913
0.520105
0.528576
0.601228
0.763471
0.795101
0.799474
0.799875
0.799656
0.799281
0.788624
0.57021
0.520391
0.525061
0.542293
0.700074
0.79731
0.798618
0.798247
0.785951
0.558648
0.523625
0.522117
0.521584
0.520821
0.519007
0.51518
0.508238
0.499065
0.491178
0.485599
0.482228
0.480686
0.480567
0.481517
0.483248
0.485532
0.488205
0.491163
0.494398
0.497924
0.501841
0.506371
0.512057
0.520147
0.52876
0.585908
0.786449
0.793009
0.771287
0.577275
0.534637
0.534644
0.53817
0.546035
0.600065
0.768434
0.751692
0.793011
0.79915
0.77524
0.593756
0.551311
0.550035
0.548711
0.54785
0.547748
0.548176
0.548923
0.549846
0.550854
0.551883
0.552896
0.553919
0.555092
0.556468
0.558042
0.559795
0.561636
0.563615
0.565739
0.568031
0.570527
0.573283
0.576367
0.579778
0.582894
0.585809
0.588575
0.591288
0.594475
0.598289
0.602776
0.608063
0.614817
0.625034
0.650716
0.772371
0.798814
0.799975
0.8
0.8
0.8
0.8
0.8
0.8
0.8
0.8
0.8
0.8
0.8
0.8
0.8
0.8
0.799988
0.799712
0.790837
0.76039
0.692778
0.603502
0.599
0.595025
0.591659
0.588178
0.584088
0.579813
0.575328
0.570964
0.567209
0.565372
0.305908
0.309255
0.314379
0.321266
0.329631
0.338853
0.348193
0.357282
0.366044
0.374529
0.382815
0.391105
0.39952
0.408479
0.418869
0.429479
0.44095
0.454976
0.487394
0.523387
0.540573
0.549852
0.743081
0.791879
0.799063
0.799921
0.799994
0.799999
0.799997
0.799993
0.799815
0.755747
0.630986
0.549982
0.587507
0.766567
0.799343
0.799988
0.799989
0.799847
0.779668
0.551066
0.612366
0.656779
0.639416
0.579156
0.542673
0.511864
0.503696
0.496675
0.491199
0.487624
0.485885
0.485706
0.486754
0.488709
0.491289
0.49426
0.497432
0.50081
0.504334
0.508073
0.512231
0.517572
0.525636
0.648066
0.792164
0.799787
0.799937
0.799499
0.786925
0.565445
0.539778
0.547104
0.555366
0.621081
0.791192
0.799188
0.799912
0.799984
0.799785
0.796727
0.792365
0.599989
0.553281
0.552734
0.55327
0.554201
0.555315
0.556502
0.557691
0.558811
0.559784
0.560604
0.561668
0.563021
0.564608
0.566377
0.568247
0.57027
0.572447
0.574819
0.577448
0.580463
0.584111
0.588655
0.591682
0.594335
0.596556
0.598852
0.601603
0.604939
0.608914
0.613362
0.619304
0.628854
0.655391
0.78028
0.799265
0.799984
0.8
0.8
0.8
0.8
0.8
0.8
0.8
0.8
0.8
0.8
0.8
0.8
0.8
0.8
0.799981
0.799713
0.797382
0.790641
0.781371
0.603881
0.599439
0.595602
0.592276
0.588805
0.584781
0.580527
0.576025
0.571603
0.567763
0.565832
0.309893
0.313724
0.319834
0.328421
0.339134
0.350791
0.361924
0.372231
0.381788
0.390802
0.399514
0.4082
0.417141
0.426768
0.437762
0.452417
0.469391
0.493226
0.551284
0.567581
0.683037
0.777742
0.7978
0.799829
0.799985
0.799999
0.8
0.8
0.8
0.8
0.799995
0.798973
0.726222
0.566923
0.640299
0.783414
0.799678
0.799996
0.8
0.799998
0.639343
0.580187
0.715029
0.792676
0.786186
0.624421
0.565483
0.514716
0.506541
0.500137
0.49509
0.491774
0.490278
0.490438
0.491971
0.494538
0.497784
0.501568
0.504979