/*--------------------------------*- C++ -*----------------------------------*\
| =========                 |                                                 |
| \\      /  F ield         | OpenFOAM: The Open Source CFD Toolbox           |
|  \\    /   O peration     | Version:  2.1.0                                 |
|   \\  /    A nd           | Web:      www.OpenFOAM.org                      |
|    \\/     M anipulation  |                                                 |
\*---------------------------------------------------------------------------*/
FoamFile
{
    version     2.0;
    format      ascii;
    class       volScalarField;
    location    "60225";
    object      sw;
}
// * * * * * * * * * * * * * * * * * * * * * * * * * * * * * * * * * * * * * //

dimensions      [0 0 0 0 0 0 0];

internalField   nonuniform List<scalar> 
15000
(
0.8
0.799995
0.799995
0.799992
0.799906
0.799211
0.796732
0.791565
0.783949
0.774809
0.76501
0.755109
0.745408
0.736052
0.727106
0.718591
0.710506
0.702839
0.695573
0.688687
0.68216
0.67597
0.670094
0.664512
0.659203
0.654146
0.649323
0.644714
0.640305
0.636078
0.632018
0.628113
0.624349
0.620714
0.617199
0.613792
0.610485
0.60727
0.604137
0.601079
0.598088
0.595159
0.592285
0.58946
0.586681
0.583944
0.581246
0.578584
0.575956
0.573362
0.5708
0.568269
0.565771
0.563304
0.560871
0.558471
0.556105
0.553775
0.551481
0.549224
0.547005
0.544824
0.542681
0.540576
0.538509
0.536479
0.534486
0.532527
0.530603
0.528711
0.526851
0.525021
0.523219
0.521445
0.519697
0.517975
0.516275
0.514599
0.512944
0.511309
0.509694
0.508099
0.506522
0.504963
0.503421
0.501898
0.500392
0.498903
0.497432
0.49598
0.494546
0.49313
0.491735
0.490359
0.489004
0.487671
0.486361
0.485075
0.483813
0.482577
0.481368
0.480187
0.479036
0.477915
0.476825
0.475769
0.474745
0.473756
0.472802
0.471883
0.470999
0.470149
0.469332
0.468549
0.467796
0.467073
0.466378
0.465711
0.465068
0.464447
0.463843
0.463248
0.462652
0.462039
0.461394
0.4607
0.459949
0.459162
0.458412
0.457791
0.457317
0.456969
0.456717
0.456465
0.45621
0.45595
0.455681
0.455402
0.455111
0.454805
0.454478
0.454123
0.45373
0.453282
0.452758
0.452125
0.451325
0.450248
0.448621
0.445352
0.799995
0.799991
0.799992
0.799984
0.799812
0.798774
0.795666
0.789868
0.781857
0.772568
0.762778
0.752962
0.743374
0.734138
0.725306
0.716895
0.708903
0.701318
0.694125
0.687304
0.680834
0.674695
0.668866
0.663326
0.658055
0.653034
0.648243
0.643666
0.639285
0.635086
0.631052
0.627171
0.623431
0.619819
0.616325
0.612939
0.609653
0.606457
0.603343
0.600303
0.597331
0.594419
0.591561
0.588752
0.585988
0.583266
0.580581
0.577932
0.575317
0.572734
0.570182
0.567661
0.565171
0.562712
0.560285
0.55789
0.55553
0.553203
0.550913
0.548659
0.546442
0.544263
0.542122
0.540019
0.537954
0.535926
0.533934
0.531978
0.530055
0.528166
0.526307
0.524479
0.52268
0.520909
0.519164
0.517443
0.515747
0.514072
0.512419
0.510787
0.509174
0.50758
0.506005
0.504447
0.502907
0.501385
0.499879
0.49839
0.496919
0.495465
0.494029
0.492612
0.491213
0.489833
0.488473
0.487134
0.485816
0.48452
0.483246
0.481997
0.480772
0.479573
0.4784
0.477255
0.476137
0.475046
0.473984
0.47295
0.471943
0.470963
0.470007
0.469073
0.468159
0.467263
0.466381
0.465512
0.464653
0.463806
0.462968
0.462139
0.461309
0.460458
0.459557
0.458559
0.457408
0.456036
0.454396
0.452528
0.450709
0.449383
0.44852
0.448015
0.447768
0.447617
0.447556
0.447566
0.447607
0.447665
0.447749
0.44788
0.448065
0.448292
0.448534
0.448752
0.448904
0.44894
0.448797
0.448361
0.447361
0.444707
0.799995
0.799991
0.799992
0.799943
0.799517
0.797781
0.793694
0.787096
0.77868
0.769306
0.759608
0.749959
0.740559
0.731504
0.722838
0.714576
0.706715
0.699246
0.692154
0.685423
0.679033
0.672967
0.667203
0.661723
0.656507
0.651537
0.646795
0.642264
0.637926
0.633768
0.629773
0.62593
0.622226
0.618649
0.615189
0.611837
0.608582
0.605417
0.602334
0.599323
0.596379
0.593493
0.590661
0.587877
0.585136
0.582436
0.579772
0.577142
0.574544
0.571976
0.569439
0.56693
0.564451
0.562002
0.559583
0.557195
0.55484
0.552519
0.550233
0.547982
0.545769
0.543593
0.541455
0.539355
0.537292
0.535267
0.533279
0.531325
0.529407
0.527521
0.525667
0.523843
0.522048
0.520281
0.51854
0.516824
0.515132
0.513462
0.511813
0.510184
0.508575
0.506985
0.505412
0.503857
0.502319
0.500798
0.499293
0.497804
0.496332
0.494877
0.493439
0.492018
0.490614
0.489229
0.487861
0.486513
0.485184
0.483875
0.482587
0.48132
0.480075
0.478852
0.477651
0.476474
0.475318
0.474184
0.473072
0.471978
0.470902
0.469839
0.468787
0.467741
0.466694
0.46564
0.464574
0.463487
0.462377
0.461243
0.460088
0.458919
0.457727
0.45648
0.455114
0.453535
0.451612
0.449186
0.446109
0.442366
0.438695
0.436603
0.43543
0.434825
0.434596
0.43464
0.434959
0.435518
0.436149
0.436797
0.437512
0.438367
0.439398
0.440571
0.441818
0.443055
0.444198
0.445171
0.445897
0.446262
0.445998
0.444022
0.799993
0.799985
0.799945
0.799693
0.798619
0.795741
0.79048
0.783129
0.774437
0.765101
0.755593
0.746189
0.737038
0.728216
0.719759
0.711681
0.703982
0.696655
0.689689
0.683069
0.676779
0.670803
0.665121
0.659717
0.654572
0.649669
0.644989
0.640517
0.636236
0.632132
0.62819
0.624397
0.620742
0.617212
0.613798
0.61049
0.607278
0.604155
0.601112
0.598141
0.595234
0.592385
0.589588
0.586837
0.584128
0.581456
0.57882
0.576215
0.57364
0.571093
0.568574
0.566082
0.563616
0.561179
0.55877
0.556391
0.554043
0.551727
0.549446
0.547199
0.544989
0.542816
0.540681
0.538584
0.536525
0.534504
0.53252
0.530571
0.528657
0.526776
0.524928
0.52311
0.521322
0.51956
0.517826
0.516116
0.514429
0.512765
0.511122
0.509499
0.507895
0.506309
0.504741
0.503189
0.501654
0.500135
0.498631
0.497143
0.49567
0.494213
0.492772
0.491347
0.489938
0.488546
0.487169
0.48581
0.484468
0.483143
0.481837
0.480548
0.479278
0.478026
0.476792
0.475575
0.474374
0.473187
0.472012
0.470846
0.469684
0.468521
0.467349
0.466159
0.46494
0.463678
0.462356
0.460956
0.459461
0.457865
0.456183
0.454471
0.452746
0.45096
0.449004
0.446719
0.443882
0.440207
0.435384
0.429084
0.423018
0.42106
0.420054
0.41954
0.419341
0.419573
0.420328
0.421655
0.423004
0.424261
0.425587
0.427191
0.429188
0.431492
0.433976
0.436483
0.438859
0.440977
0.442739
0.444026
0.444574
0.443311
0.799916
0.799829
0.799547
0.798659
0.796416
0.792159
0.785848
0.777995
0.769236
0.760078
0.750852
0.741754
0.732898
0.724346
0.716128
0.708261
0.700746
0.693581
0.686758
0.680266
0.674091
0.668219
0.662634
0.657319
0.652258
0.647434
0.64283
0.638431
0.63422
0.630183
0.626305
0.622575
0.618979
0.615508
0.61215
0.608897
0.60574
0.602669
0.599677
0.596755
0.593896
0.591093
0.58834
0.585631
0.582962
0.580328
0.577726
0.575153
0.572607
0.570086
0.567589
0.565117
0.562668
0.560245
0.557847
0.555478
0.553137
0.550827
0.54855
0.546308
0.544101
0.541931
0.539799
0.537706
0.535651
0.533634
0.531654
0.529712
0.527804
0.52593
0.524089
0.522279
0.520498
0.518745
0.517018
0.515316
0.513637
0.51198
0.510345
0.508729
0.507132
0.505552
0.503989
0.502443
0.500912
0.499395
0.497893
0.496406
0.494933
0.493474
0.49203
0.490601
0.489185
0.487784
0.486398
0.485025
0.483668
0.482325
0.480998
0.479684
0.478385
0.4771
0.475827
0.474564
0.47331
0.472061
0.470814
0.469563
0.4683
0.467017
0.465702
0.464337
0.462903
0.46137
0.459701
0.457849
0.455764
0.453407
0.450825
0.448289
0.445878
0.443504
0.440988
0.438091
0.434502
0.429824
0.423589
0.4147
0.407337
0.407062
0.40634
0.406014
0.405811
0.406004
0.406867
0.408996
0.410913
0.41238
0.41386
0.415814
0.418558
0.421893
0.425607
0.429479
0.433219
0.436605
0.439493
0.441757
0.443144
0.442591
0.7993
0.798893
0.797941
0.795929
0.792307
0.786879
0.779906
0.771877
0.763256
0.754391
0.745511
0.73676
0.728227
0.719965
0.712004
0.704362
0.697046
0.690056
0.683388
0.677035
0.670986
0.665229
0.659751
0.654536
0.64957
0.644837
0.640321
0.636006
0.631877
0.627918
0.624117
0.62046
0.616936
0.613534
0.610243
0.607056
0.603963
0.600955
0.598024
0.595162
0.592361
0.589614
0.586915
0.584258
0.581637
0.579049
0.576489
0.573955
0.571444
0.568954
0.566485
0.564036
0.561607
0.5592
0.556815
0.554456
0.552123
0.549819
0.547546
0.545307
0.543103
0.540935
0.538806
0.536716
0.534665
0.532653
0.53068
0.528744
0.526844
0.524979
0.523147
0.521346
0.519575
0.517831
0.516114
0.514421
0.512752
0.511105
0.509479
0.507872
0.506283
0.504712
0.503156
0.501616
0.50009
0.498578
0.497079
0.495593
0.49412
0.492659
0.491211
0.489777
0.488355
0.486945
0.485546
0.48416
0.482785
0.481423
0.480071
0.47873
0.477398
0.476075
0.474758
0.473444
0.472131
0.470813
0.469484
0.468136
0.466759
0.465339
0.463856
0.462283
0.460585
0.458706
0.456574
0.454086
0.451108
0.447495
0.443346
0.439716
0.436648
0.433875
0.431087
0.427964
0.42415
0.419218
0.412679
0.402233
0.398256
0.390141
0.382856
0.375518
0.371772
0.375591
0.385423
0.404278
0.405503
0.406008
0.406577
0.407735
0.410238
0.413767
0.418014
0.422926
0.427891
0.432464
0.436415
0.439602
0.441777
0.441885
0.797093
0.79608
0.794165
0.79097
0.786274
0.780166
0.772959
0.765027
0.756692
0.748192
0.739692
0.731305
0.723104
0.715139
0.707441
0.70003
0.692918
0.686108
0.679602
0.673393
0.667476
0.661842
0.656477
0.651371
0.646509
0.641876
0.637458
0.633238
0.629202
0.625333
0.621619
0.618047
0.614605
0.611282
0.608069
0.604958
0.601939
0.599004
0.596145
0.593353
0.590621
0.587941
0.585306
0.58271
0.580148
0.577615
0.575107
0.572619
0.57015
0.567697
0.56526
0.562838
0.560432
0.558043
0.555673
0.553324
0.550999
0.548701
0.546432
0.544194
0.541992
0.539826
0.537699
0.535611
0.533564
0.531558
0.529591
0.527664
0.525773
0.523918
0.522097
0.520307
0.518547
0.516815
0.515109
0.513428
0.51177
0.510135
0.50852
0.506924
0.505346
0.503784
0.502238
0.500706
0.499187
0.49768
0.496185
0.494701
0.493228
0.491766
0.490315
0.488875
0.487445
0.486025
0.484615
0.483213
0.48182
0.480435
0.479057
0.477686
0.476319
0.474954
0.473589
0.472219
0.470841
0.469446
0.468028
0.466574
0.46507
0.463494
0.461819
0.460002
0.457985
0.455678
0.45295
0.449605
0.44535
0.439735
0.432848
0.428217
0.424919
0.422228
0.419667
0.416879
0.413537
0.409305
0.403833
0.393123
0.366521
0.219971
0.201159
0.200028
0.209391
0.320073
0.317522
0.313969
0.325167
0.337431
0.357823
0.378973
0.405453
0.408505
0.412142
0.417695
0.42358
0.429035
0.433795
0.437715
0.440544
0.441214
0.792447
0.790796
0.788052
0.784056
0.778807
0.772483
0.765355
0.757692
0.74972
0.741614
0.7335
0.725473
0.717598
0.709924
0.702484
0.695301
0.68839
0.68176
0.675414
0.669352
0.663568
0.658058
0.652811
0.647818
0.643066
0.638542
0.63423
0.630116
0.626183
0.622415
0.6188
0.615322
0.611972
0.608738
0.605613
0.602587
0.599653
0.596802
0.594025
0.591315
0.588663
0.586061
0.583503
0.58098
0.578488
0.57602
0.573572
0.57114
0.568721
0.566312
0.563913
0.561523
0.559143
0.556775
0.55442
0.552083
0.549765
0.54747
0.545203
0.542967
0.540764
0.538598
0.536471
0.534386
0.532342
0.530341
0.528382
0.526463
0.524583
0.52274
0.520932
0.519155
0.517408
0.515689
0.513997
0.512329
0.510685
0.509063
0.507462
0.50588
0.504315
0.502766
0.501231
0.499709
0.498199
0.496699
0.495209
0.493729
0.492257
0.490794
0.489339
0.487892
0.486455
0.485025
0.483601
0.482183
0.48077
0.479361
0.477956
0.476552
0.475147
0.473738
0.472321
0.470892
0.469443
0.467967
0.466451
0.464881
0.463236
0.461487
0.459593
0.457495
0.455103
0.452284
0.448834
0.444431
0.438524
0.430003
0.418585
0.414022
0.411261
0.409188
0.407287
0.405279
0.402946
0.400072
0.396407
0.384922
0.350087
0.271514
0.206349
0.200235
0.200089
0.205452
0.207154
0.208635
0.212683
0.21554
0.315455
0.327518
0.373215
0.394272
0.410698
0.415889
0.421348
0.426806
0.431857
0.436203
0.439492
0.440593
0.785538
0.783452
0.78024
0.775893
0.770509
0.76427
0.757391
0.750073
0.742485
0.734766
0.727022
0.719334
0.711767
0.704367
0.697171
0.690205
0.683486
0.677028
0.670836
0.664914
0.65926
0.653871
0.648742
0.643863
0.639225
0.634815
0.630618
0.626618
0.622799
0.619144
0.615637
0.612266
0.609017
0.605883
0.602854
0.599923
0.597083
0.594326
0.591644
0.589027
0.586469
0.583959
0.58149
0.579054
0.576644
0.574253
0.571878
0.569512
0.567152
0.564795
0.562441
0.560088
0.557737
0.555392
0.553054
0.550727
0.548416
0.546124
0.543857
0.541619
0.539413
0.537244
0.535116
0.53303
0.530988
0.528992
0.52704
0.525132
0.523265
0.521435
0.519642
0.51788
0.516149
0.514446
0.512769
0.511117
0.509489
0.507883
0.506298
0.504732
0.503183
0.501649
0.500128
0.49862
0.497121
0.49563
0.494147
0.492672
0.491202
0.489738
0.48828
0.486828
0.485384
0.483943
0.482505
0.48107
0.479636
0.478203
0.476768
0.475329
0.473884
0.472428
0.470956
0.469463
0.467939
0.466374
0.464753
0.463056
0.461257
0.459315
0.457176
0.454757
0.451938
0.448537
0.444277
0.43871
0.430972
0.418978
0.401777
0.398514
0.39617
0.394722
0.393576
0.392694
0.391873
0.390904
0.389616
0.374068
0.321288
0.239316
0.203265
0.200127
0.200004
0.20013
0.200221
0.200336
0.200545
0.200626
0.213305
0.216008
0.245002
0.389214
0.410396
0.415188
0.420229
0.425459
0.430521
0.435056
0.438624
0.440024
0.777205
0.774914
0.77154
0.767147
0.761861
0.755848
0.74928
0.742316
0.735096
0.727733
0.720324
0.712944
0.705655
0.698504
0.69153
0.684761
0.678219
0.671918
0.665867
0.660074
0.65454
0.649265
0.644247
0.639479
0.634955
0.630662
0.626586
0.622711
0.619018
0.615487
0.612101
0.608846
0.605709
0.602682
0.599758
0.596931
0.594195
0.591544
0.588968
0.58646
0.58401
0.581607
0.579244
0.57691
0.574597
0.572299
0.57001
0.567723
0.565434
0.563139
0.560837
0.558527
0.556211
0.553891
0.551571
0.549255
0.546949
0.544658
0.542387
0.540143
0.537931
0.535755
0.533621
0.531531
0.52949
0.527497
0.525553
0.523656
0.521803
0.519991
0.518215
0.516472
0.514758
0.513073
0.511414
0.509781
0.508171
0.506583
0.505017
0.50347
0.501941
0.500426
0.498923
0.49743
0.495946
0.494467
0.492994
0.491524
0.490058
0.488595
0.487135
0.485677
0.484224
0.482773
0.481322
0.479869
0.478414
0.476954
0.475488
0.474012
0.472524
0.471017
0.469487
0.467925
0.46632
0.46466
0.462925
0.461091
0.459121
0.456965
0.454552
0.451776
0.448487
0.444462
0.439367
0.432664
0.423245
0.408323
0.388984
0.362816
0.343054
0.320556
0.283568
0.242057
0.239413
0.270403
0.339975
0.334072
0.270486
0.205786
0.200294
0.200011
0.2
0.200003
0.200006
0.200012
0.200019
0.200021
0.200541
0.200718
0.204132
0.405388
0.410483
0.414815
0.41975
0.424671
0.429618
0.434199
0.437916
0.439504
0.768272
0.765929
0.762566
0.758273
0.753179
0.747428
0.741165
0.734525
0.727627
0.720575
0.713454
0.70634
0.699291
0.692357
0.685577
0.67898
0.672591
0.666426
0.660497
0.654814
0.649383
0.644207
0.639287
0.634621
0.630204
0.626028
0.622079
0.618338
0.614784
0.611392
0.608141
0.605014
0.601999
0.599088
0.596277
0.593562
0.59094
0.588406
0.585953
0.58357
0.581246
0.57897
0.576731
0.574518
0.572322
0.570135
0.567949
0.565757
0.563553
0.561333
0.559094
0.556835
0.554559
0.552267
0.549966
0.547661
0.545358
0.543063
0.540785
0.538531
0.536306
0.534117
0.531972
0.529874
0.527821
0.52582
0.523878
0.521995
0.520159
0.518367
0.516613
0.514892
0.5132
0.511535
0.509896
0.508282
0.506694
0.505128
0.503585
0.502062
0.500557
0.499066
0.497587
0.496116
0.494651
0.493189
0.491729
0.490269
0.488809
0.487348
0.485887
0.484425
0.482962
0.481502
0.480036
0.478566
0.477088
0.4756
0.474101
0.472586
0.471052
0.469492
0.467899
0.466264
0.464573
0.46281
0.460951
0.458965
0.456807
0.454414
0.451698
0.448536
0.44475
0.440091
0.434187
0.426435
0.415475
0.397902
0.379355
0.325899
0.246962
0.201773
0.200021
0.200196
0.204267
0.206799
0.203225
0.223673
0.209043
0.200686
0.200031
0.200001
0.2
0.2
0.2
0.2
0.200001
0.200001
0.200013
0.200014
0.244403
0.405936
0.410456
0.414524
0.41932
0.42415
0.428981
0.433547
0.437328
0.439022
0.759288
0.75697
0.753688
0.74954
0.744646
0.739136
0.733135
0.726763
0.720129
0.713327
0.706442
0.699544
0.692693
0.685936
0.679314
0.672858
0.666592
0.660535
0.654701
0.649102
0.643747
0.638644
0.633799
0.629215
0.624893
0.620827
0.617007
0.61341
0.610011
0.606778
0.603681
0.600698
0.597815
0.595027
0.592335
0.589739
0.587242
0.584841
0.582528
0.580291
0.578118
0.575993
0.573903
0.571835
0.56978
0.567727
0.565667
0.563591
0.561492
0.559363
0.557199
0.555002
0.552772
0.550513
0.548233
0.545937
0.543634
0.541332
0.539041
0.536768
0.534523
0.532314
0.530148
0.528012
0.525931
0.523912
0.521963
0.520085
0.518272
0.516506
0.51478
0.513086
0.51142
0.50978
0.508166
0.506576
0.505013
0.503474
0.50196
0.500467
0.498993
0.497534
0.496086
0.494645
0.493206
0.491766
0.490324
0.488878
0.487427
0.485972
0.484511
0.483046
0.481576
0.480107
0.478629
0.47714
0.475639
0.474124
0.47259
0.471034
0.469451
0.467834
0.466174
0.46446
0.462675
0.460798
0.458802
0.456646
0.454278
0.451624
0.448582
0.445015
0.440732
0.435467
0.428826
0.420133
0.407688
0.387409
0.372204
0.279591
0.201893
0.200022
0.2
0.2
0.200051
0.200151
0.200136
0.201338
0.200582
0.200036
0.200002
0.2
0.2
0.2
0.2
0.2
0.2
0.2
0.2
0.202566
0.336062
0.405844
0.410295
0.414271
0.418933
0.423701
0.4285
0.433028
0.436824
0.438566
0.750565
0.748297
0.745108
0.741094
0.736366
0.731043
0.725239
0.719066
0.712625
0.706009
0.699298
0.692561
0.685857
0.679234
0.672731
0.666377
0.660197
0.654212
0.648435
0.642882
0.637564
0.632494
0.627685
0.623146
0.618888
0.614914
0.611218
0.607779
0.60456
0.601515
0.598598
0.59578
0.593044
0.590387
0.587818
0.585349
0.582987
0.580735
0.578585
0.576523
0.574532
0.572591
0.570683
0.568793
0.56691
0.565023
0.56312
0.561189
0.559221
0.557205
0.555136
0.553014
0.550839
0.548619
0.546361
0.544073
0.541767
0.539452
0.53714
0.53484
0.532563
0.530319
0.528089
0.525905
0.52378
0.52173
0.519766
0.517893
0.516108
0.514376
0.512685
0.511026
0.509391
0.50778
0.506192
0.504629
0.503094
0.501587
0.500106
0.498651
0.497216
0.495798
0.494391
0.492988
0.491584
0.490174
0.488756
0.487329
0.485891
0.484444
0.482987
0.481522
0.480046
0.478562
0.477073
0.475567
0.474044
0.4725
0.470931
0.469332
0.467697
0.466017
0.464282
0.462478
0.460585
0.458579
0.456425
0.454078
0.451477
0.448542
0.445163
0.441197
0.43645
0.430652
0.423389
0.413895
0.399934
0.376239
0.365237
0.235145
0.201334
0.20003
0.2
0.2
0.200001
0.200003
0.200004
0.200042
0.200019
0.200001
0.2
0.2
0.2
0.2
0.2
0.2
0.2
0.200003
0.200238
0.21624
0.360319
0.405682
0.410112
0.414053
0.418622
0.423311
0.42806
0.432581
0.436376
0.438128
0.742262
0.740043
0.736927
0.733007
0.728389
0.723182
0.717498
0.711444
0.705119
0.698615
0.692011
0.685376
0.678765
0.672226
0.665795
0.659499
0.653362
0.6474
0.641631
0.636069
0.630729
0.625628
0.620787
0.616227
0.611892
0.60787
0.60428
0.601014
0.598017
0.595217
0.592538
0.589931
0.587373
0.584866
0.582432
0.5801
0.577893
0.57582
0.573874
0.572038
0.570284
0.568584
0.566913
0.565253
0.563592
0.561919
0.560221
0.558481
0.556684
0.554817
0.552871
0.550844
0.54874
0.546566
0.544333
0.542053
0.539739
0.537404
0.535061
0.53272
0.530396
0.528077
0.525769
0.5235
0.52129
0.519167
0.517159
0.515284
0.513536
0.511853
0.510213
0.5086
0.507006
0.505428
0.50387
0.502338
0.500835
0.499365
0.497927
0.49652
0.495139
0.493777
0.492427
0.491079
0.489724
0.488357
0.486975
0.485574
0.484157
0.482723
0.481275
0.479811
0.478333
0.476841
0.475342
0.47382
0.472273
0.470697
0.469087
0.467438
0.465742
0.463988
0.462164
0.460253
0.458232
0.456073
0.453738
0.451178
0.448328
0.445105
0.441401
0.437074
0.431936
0.425722
0.418005
0.407925
0.392642
0.36599
0.306352
0.220448
0.20053
0.20001
0.2
0.2
0.2
0.2
0.2
0.200001
0.2
0.2
0.2
0.2
0.2
0.2
0.2
0.2
0.2
0.200009
0.200425
0.216108
0.377469
0.405658
0.409996
0.413888
0.418365
0.422977
0.427671
0.432159
0.435941
0.437696
0.734457
0.732271
0.729194
0.725313
0.720732
0.71556
0.709907
0.703881
0.697586
0.691114
0.684546
0.677948
0.671373
0.664864
0.658453
0.652163
0.646013
0.640017
0.634187
0.628537
0.623084
0.617848
0.612722
0.607479
0.602337
0.597513
0.593353
0.590365
0.587806
0.585535
0.58338
0.581235
0.579051
0.576835
0.574639
0.572537
0.570592
0.56883
0.567248
0.565819
0.564496
0.563223
0.561961
0.560686
0.559388
0.558058
0.556682
0.555239
0.553707
0.552065
0.550301
0.548414
0.546411
0.544302
0.542105
0.539836
0.537512
0.53515
0.532763
0.530367
0.527973
0.525538
0.5231
0.520675
0.51829
0.515991
0.513852
0.511943
0.510251
0.508646
0.50709
0.505551
0.504015
0.502483
0.500962
0.499466
0.498005
0.496583
0.495203
0.493864
0.492561
0.491286
0.490024
0.488763
0.487487
0.486188
0.484861
0.483504
0.48212
0.48071
0.479278
0.477824
0.476349
0.474853
0.473339
0.471805
0.470235
0.468624
0.466969
0.46526
0.463489
0.461645
0.459711
0.45767
0.455497
0.453162
0.450626
0.447841
0.444743
0.441252
0.437266
0.432653
0.427235
0.42075
0.412765
0.402338
0.386062
0.358454
0.271243
0.213207
0.200339
0.200006
0.2
0.2
0.2
0.2
0.2
0.2
0.2
0.2
0.2
0.2
0.2
0.2
0.2
0.2
0.2
0.20001
0.200318
0.207715
0.400473
0.405987
0.409984
0.413767
0.418138
0.422673
0.427306
0.431753
0.43551
0.437264
0.727184
0.725009
0.721925
0.718018
0.713393
0.708159
0.702434
0.696335
0.689974
0.683447
0.676837
0.670208
0.663607
0.65707
0.650621
0.644276
0.638045
0.631933
0.625948
0.620093
0.614383
0.608572
0.602241
0.595611
0.588615
0.581714
0.575421
0.572257
0.570477
0.569309
0.568267
0.567088
0.56564
0.563923
0.562058
0.560246
0.558679
0.557428
0.5565
0.555849
0.555381
0.554961
0.554498
0.553957
0.553337
0.552639
0.551853
0.550949
0.54989
0.548645
0.547197
0.545548
0.543714
0.541717
0.539583
0.537339
0.535009
0.532615
0.530173
0.5277
0.525182
0.522586
0.519932
0.517221
0.51447
0.511747
0.509239
0.507216
0.505614
0.504158
0.502758
0.501355
0.499921
0.498456
0.496982
0.495532
0.494125
0.492771
0.491478
0.490244
0.489068
0.487938
0.486832
0.485723
0.484588
0.483409
0.48218
0.480901
0.479577
0.478212
0.476813
0.475382
0.473922
0.472431
0.470908
0.469367
0.467776
0.466128
0.464417
0.462637
0.460776
0.458822
0.456758
0.454565
0.452219
0.449692
0.44695
0.44395
0.440634
0.436932
0.432748
0.427959
0.422393
0.415796
0.407718
0.397144
0.380096
0.352968
0.242471
0.203468
0.200093
0.200002
0.2
0.2
0.2
0.2
0.2
0.2
0.2
0.2
0.2
0.2
0.2
0.2
0.2
0.2
0.200001
0.200026
0.200942
0.225054
0.40116
0.406091
0.409906
0.41362
0.417903
0.422368
0.426945
0.431351
0.435079
0.436831
0.720447
0.718249
0.715104
0.711105
0.706362
0.700975
0.69502
0.688726
0.682188
0.67551
0.668776
0.662045
0.655354
0.648727
0.642175
0.635701
0.6293
0.622964
0.616681
0.61044
0.604068
0.596505
0.587871
0.578153
0.567112
0.556646
0.545754
0.542065
0.541558
0.542717
0.543959
0.544701
0.544583
0.543541
0.541652
0.538744
0.537533
0.537024
0.537229
0.538094
0.539419
0.540796
0.541973
0.542889
0.543582
0.544102
0.544456
0.544603
0.544466
0.543984
0.543134
0.54193
0.540409
0.538618
0.536608
0.534423
0.532103
0.529678
0.527171
0.524597
0.521894
0.51906
0.516063
0.512863
0.509418
0.505779
0.502361
0.500128
0.498691
0.497548
0.496471
0.49534
0.494088
0.492714
0.491279
0.489865
0.488516
0.487247
0.486069
0.484991
0.484015
0.483132
0.482306
0.481476
0.480596
0.479635
0.478582
0.47744
0.47622
0.474936
0.473599
0.472216
0.470791
0.469322
0.467808
0.466251
0.46465
0.46297
0.461206
0.459349
0.45739
0.455313
0.453105
0.450746
0.448218
0.445501
0.442573
0.439401
0.435939
0.432121
0.427858
0.423027
0.41746
0.410897
0.40287
0.392277
0.374466
0.348988
0.224623
0.200491
0.200009
0.2
0.2
0.2
0.2
0.2
0.2
0.2
0.2
0.2
0.2
0.2
0.2
0.2
0.2
0.2
0.200001
0.200045
0.203074
0.304184
0.401087
0.40597
0.409727
0.413412
0.417632
0.422041
0.426571
0.430941
0.434645
0.436395
0.714222
0.711943
0.708656
0.704458
0.699471
0.693825
0.687615
0.681091
0.674363
0.667202
0.660201
0.653293
0.646447
0.639663
0.632932
0.626236
0.619546
0.612826
0.60603
0.599097
0.590393
0.579546
0.566148
0.552185
0.536232
0.524853
0.511179
0.508724
0.509045
0.513112
0.516886
0.51966
0.520761
0.519827
0.515313
0.508707
0.505971
0.505791
0.507082
0.50994
0.514204
0.518606
0.522416
0.525559
0.528243
0.530669
0.532914
0.534901
0.536434
0.537349
0.537587
0.537179
0.536211
0.534783
0.532993
0.530923
0.52864
0.526191
0.523608
0.520904
0.517986
0.51483
0.511355
0.507438
0.502895
0.49767
0.492551
0.490307
0.489166
0.488659
0.488164
0.487495
0.486505
0.48518
0.4834
0.481786
0.480457
0.479261
0.478206
0.477316
0.476619
0.476127
0.475791
0.475453
0.475022
0.474436
0.473675
0.472754
0.4717
0.470543
0.469306
0.468005
0.466647
0.46523
0.463747
0.462191
0.4606
0.4589
0.457087
0.455156
0.453097
0.450897
0.448544
0.446024
0.443326
0.440447
0.437385
0.434125
0.430628
0.426831
0.422635
0.41791
0.41248
0.406076
0.398202
0.387623
0.368674
0.345908
0.220198
0.20049
0.200009
0.2
0.2
0.2
0.2
0.2
0.2
0.2
0.2
0.2
0.2
0.2
0.2
0.2
0.2
0.200001
0.200018
0.201248
0.230435
0.350241
0.400907
0.405754
0.409475
0.413139
0.417309
0.421675
0.426169
0.430516
0.434207
0.435959
0.708498
0.706074
0.702547
0.698018
0.692631
0.68655
0.679932
0.673037
0.665986
0.658659
0.651455
0.643731
0.636649
0.629632
0.622629
0.615585
0.608431
0.601078
0.593405
0.584216
0.57166
0.554327
0.534454
0.51959
0.502452
0.497058
0.492328
0.472069
0.467212
0.501608
0.503801
0.50567
0.506142
0.50408
0.495966
0.484855
0.481675
0.479609
0.480002
0.482625
0.488652
0.495342
0.500885
0.505326
0.509269
0.513216
0.517393
0.521677
0.525559
0.528541
0.530407
0.531185
0.531031
0.530129
0.528654
0.526747
0.524518
0.522044
0.519369
0.516505
0.51334
0.509825
0.505818
0.501084
0.495198
0.488073
0.481409
0.47976
0.478976
0.479434
0.479613
0.479462
0.478684
0.477144
0.473724
0.471556
0.470015
0.468813
0.467796
0.467018
0.466566
0.466553
0.46699
0.467418
0.467683
0.467656
0.467304
0.466672
0.465825
0.464824
0.463714
0.462525
0.461269
0.459942
0.458525
0.457006
0.455379
0.453682
0.451839
0.44985
0.44771
0.445411
0.442941
0.440291
0.437462
0.43447
0.431356
0.428122
0.424734
0.421119
0.417145
0.412659
0.407482
0.401344
0.393701
0.38309
0.361925
0.341826
0.219669
0.200533
0.20001
0.2
0.2
0.2
0.2
0.2
0.2
0.2
0.2
0.2
0.2
0.2
0.2
0.2
0.200026
0.200254
0.203907
0.229042
0.289017
0.374489
0.400841
0.405535
0.409178
0.4128
0.416921
0.421251
0.425726
0.430067
0.433762
0.435521
0.703255
0.700611
0.696723
0.691692
0.68569
0.678949
0.671722
0.664296
0.656797
0.649193
0.641693
0.633881
0.625967
0.61831
0.610881
0.603297
0.595396
0.586982
0.577775
0.563354
0.544287
0.518982
0.496783
0.488705
0.481711
0.375273
0.229991
0.209049
0.226577
0.250521
0.448242
0.49384
0.494876
0.491465
0.477584
0.470224
0.433782
0.331983
0.315082
0.428143
0.478507
0.483581
0.487258
0.490029
0.492782
0.496243
0.500915
0.506869
0.513178
0.518519
0.522278
0.524427
0.525193
0.524869
0.52372
0.521961
0.519758
0.517226
0.514431
0.511382
0.507992
0.504182
0.499759
0.494357
0.487227
0.478938
0.474048
0.461917
0.454384
0.472513
0.472917
0.473104
0.472333
0.469565
0.462451
0.458713
0.456973
0.455688
0.453668
0.452809
0.452431
0.452931
0.454881
0.456685
0.458145
0.459012
0.459235
0.458957
0.458338
0.457503
0.456534
0.455484
0.454377
0.4532
0.451903
0.450457
0.448854
0.447163
0.445321
0.443324
0.441172
0.438854
0.436354
0.433654
0.430747
0.427665
0.424567
0.421469
0.418333
0.415072
0.411453
0.407299
0.402452
0.396678
0.389388
0.37882
0.354735
0.245369
0.202542
0.200054
0.200001
0.2
0.2
0.2
0.2
0.2
0.2
0.2
0.2
0.2
0.2
0.2
0.2
0.2
0.200024
0.200492
0.208513
0.245394
0.314144
0.396179
0.401096
0.405339
0.408825
0.412377
0.416446
0.420752
0.425246
0.429587
0.433296
0.435079
0.698464
0.695515
0.691111
0.685336
0.678405
0.67068
0.66258
0.654434
0.646364
0.638368
0.630495
0.622498
0.614426
0.605725
0.597138
0.588653
0.579496
0.569211
0.554356
0.52956
0.506087
0.479895
0.471424
0.398772
0.236529
0.204899
0.200526
0.200125
0.200344
0.200719
0.211376
0.42979
0.479609
0.474939
0.457707
0.299926
0.20269
0.201382
0.201753
0.214049
0.441352
0.476375
0.477883
0.478416
0.479179
0.480993
0.48482
0.491762
0.500935
0.508822
0.514401
0.517772
0.519314
0.519433
0.518483
0.516752
0.514468
0.511795
0.508837
0.505602
0.502076
0.498159
0.493629
0.487943
0.479853
0.47124
0.414092
0.213551
0.206991
0.228713
0.422725
0.465363
0.465356
0.46183
0.453965
0.399935
0.231566
0.248308
0.206989
0.20085
0.22476
0.406244
0.448689
0.449965
0.451289
0.45215
0.452252
0.451824
0.451077
0.450154
0.449146
0.448117
0.447104
0.446081
0.444908
0.443532
0.441958
0.440205
0.438364
0.436385
0.434261
0.431969
0.429473
0.426717
0.423633
0.420222
0.417106
0.414191
0.411425
0.408712
0.405525
0.401711
0.397224
0.391937
0.385183
0.374966
0.349284
0.227629
0.201186
0.200025
0.2
0.2
0.2
0.2
0.2
0.2
0.2
0.2
0.2
0.2
0.2
0.2
0.2
0.2
0.200012
0.200288
0.209163
0.23961
0.307222
0.396498
0.401
0.404975
0.408341
0.411822
0.415912
0.420187
0.424672
0.429036
0.432791
0.434628
0.694092
0.690745
0.685621
0.678734
0.670369
0.661147
0.651807
0.642718
0.633956
0.625471
0.617185
0.608895
0.60048
0.591521
0.581131
0.570521
0.55905
0.545024
0.512606
0.476613
0.459427
0.450148
0.256919
0.208121
0.200937
0.200079
0.200006
0.200001
0.200003
0.200007
0.200185
0.244253
0.369014
0.450018
0.412493
0.233433
0.200657
0.200012
0.200011
0.200153
0.220332
0.448934
0.387634
0.343221
0.360584
0.420844
0.457327
0.488136
0.496304
0.503325
0.508801
0.512376
0.514115
0.514294
0.513246
0.511291
0.508711
0.50574
0.502568
0.49919
0.495666
0.491927
0.487769
0.482428
0.474364
0.351934
0.207836
0.200213
0.200063
0.200501
0.213075
0.434555
0.460222
0.452896
0.444634
0.378919
0.208808
0.200812
0.200088
0.200016
0.200215
0.203273
0.207635
0.400011
0.446719
0.447266
0.44673
0.445799
0.444685
0.443498
0.442309
0.441189
0.440216
0.439396
0.438332
0.436979
0.435392
0.433623
0.431753
0.42973
0.427553
0.425181
0.422552
0.419537
0.415889
0.411345
0.408318
0.405665
0.403444
0.401148
0.398397
0.395061
0.391086
0.386638
0.380696
0.371146
0.344609
0.21972
0.200735
0.200016
0.2
0.2
0.2
0.2
0.2
0.2
0.2
0.2
0.2
0.2
0.2
0.2
0.2
0.2
0.200019
0.200287
0.202618
0.209359
0.218629
0.396119
0.400561
0.404398
0.407724
0.411195
0.415219
0.419473
0.423975
0.428397
0.432237
0.434168
0.690107
0.686276
0.680166
0.671579
0.660866
0.649209
0.638076
0.627769
0.618212
0.609198
0.600486
0.5918
0.582859
0.573232
0.562238
0.547583
0.530609
0.506774
0.448716
0.432419
0.316963
0.222258
0.2022
0.200171
0.200015
0.200001
0.2
0.2
0.2
0.2
0.200005
0.201027
0.273778
0.433077
0.359701
0.216586
0.200322
0.200004
0.2
0.200002
0.360657
0.419813
0.284971
0.207324
0.213814
0.375579
0.434517
0.485284
0.493459
0.499863
0.50491
0.508226
0.509722
0.509562
0.508029
0.505462
0.502216
0.498432
0.495021