/*--------------------------------*- C++ -*----------------------------------*\
| =========                 |                                                 |
| \\      /  F ield         | OpenFOAM: The Open Source CFD Toolbox           |
|  \\    /   O peration     | Version:  2.1.0                                 |
|   \\  /    A nd           | Web:      www.OpenFOAM.org                      |
|    \\/     M anipulation  |                                                 |
\*---------------------------------------------------------------------------*/
FoamFile
{
    version     2.0;
    format      ascii;
    class       volScalarField;
    location    "24090";
    object      kr_o;
}
// * * * * * * * * * * * * * * * * * * * * * * * * * * * * * * * * * * * * * //

dimensions      [0 0 0 0 0 0 0];

internalField   nonuniform List<scalar> 
15000
(
1.95833e-12
3.34419e-07
2.4118e-05
0.000280085
0.00114228
0.00273353
0.00492207
0.0075476
0.0104967
0.0136935
0.0170834
0.0206234
0.0242774
0.0280139
0.0318048
0.035625
0.0394531
0.043271
0.0470641
0.0508202
0.05453
0.058187
0.0617878
0.0653319
0.0688187
0.0722473
0.0756175
0.0789303
0.082187
0.0853896
0.08854
0.0916407
0.0946946
0.0977055
0.100677
0.103612
0.106513
0.109384
0.112229
0.115051
0.117853
0.12064
0.123413
0.126175
0.128929
0.131676
0.134419
0.137159
0.139898
0.142635
0.14537
0.148104
0.150835
0.153564
0.156289
0.159008
0.16172
0.164422
0.167115
0.169795
0.172463
0.175117
0.177756
0.180379
0.182988
0.185584
0.188167
0.190739
0.1933
0.195854
0.198402
0.200947
0.203493
0.206041
0.208594
0.211157
0.213733
0.216325
0.218939
0.221576
0.224244
0.226946
0.229689
0.232479
0.235321
0.238222
0.241193
0.244243
0.247383
0.250625
0.253986
0.257486
0.261151
0.265014
0.269119
0.273523
0.278304
0.283569
0.289471
0.296228
0.304171
0.313811
0.325978
0.342052
0.364347
0.396307
0.440528
0.490866
0.530071
0.550284
0.558229
0.561022
0.56198
0.562312
0.56243
0.562473
0.562489
0.562496
0.562498
0.562499
0.5625
0.5625
0.5625
0.5625
0.5625
0.5625
0.5625
0.5625
0.5625
0.5625
0.5625
0.5625
0.5625
0.5625
0.5625
0.5625
0.5625
0.5625
0.5625
0.5625
0.5625
0.5625
0.5625
0.5625
0.5625
0.5625
0.5625
0.5625
0.5625
0.5625
3.59399e-07
6.88431e-06
0.000102261
0.000577283
0.00170364
0.00348102
0.00577168
0.00844821
0.011421
0.0146273
0.0180197
0.0215587
0.0252107
0.0289451
0.032734
0.036553
0.0403813
0.044201
0.0479969
0.0517565
0.0554703
0.0591319
0.0627382
0.0662886
0.0697814
0.0732157
0.0765915
0.0799096
0.0831708
0.0863766
0.0895288
0.0926302
0.0956846
0.0986951
0.101665
0.104596
0.107493
0.110359
0.113198
0.116014
0.11881
0.121589
0.124354
0.127109
0.129854
0.132594
0.13533
0.138064
0.140796
0.143527
0.146257
0.148988
0.151718
0.154447
0.157172
0.159893
0.162608
0.165315
0.168013
0.170702
0.173378
0.176041
0.17869
0.181324
0.183945
0.186554
0.189151
0.191736
0.194311
0.196879
0.199444
0.202006
0.204568
0.207134
0.209707
0.212291
0.21489
0.217507
0.220147
0.222814
0.225515
0.228255
0.231039
0.233873
0.236766
0.239727
0.242764
0.24589
0.249117
0.25246
0.255939
0.259577
0.263405
0.267464
0.271806
0.276502
0.281649
0.287381
0.293889
0.301457
0.310515
0.321739
0.336236
0.355844
0.383464
0.422432
0.471296
0.516372
0.543862
0.55583
0.560202
0.561706
0.562221
0.562399
0.562463
0.562486
0.562494
0.562498
0.562499
0.5625
0.5625
0.5625
0.5625
0.5625
0.5625
0.5625
0.5625
0.5625
0.5625
0.5625
0.5625
0.5625
0.5625
0.5625
0.5625
0.5625
0.5625
0.5625
0.5625
0.5625
0.5625
0.5625
0.5625
0.5625
0.5625
0.5625
0.5625
0.5625
0.5625
0.5625
2.3422e-05
0.000100429
0.00042
0.00124009
0.00266061
0.00461364
0.00699127
0.00970534
0.0126908
0.0158978
0.0192854
0.0228181
0.0264636
0.0301921
0.0339765
0.0377926
0.0416196
0.0454392
0.0492358
0.0529969
0.056713
0.0603782
0.0639894
0.0675448
0.0710421
0.07448
0.077858
0.0811767
0.0844367
0.0876393
0.0907869
0.0938829
0.0969303
0.0999322
0.102892
0.105812
0.108696
0.111549
0.114375
0.117176
0.119956
0.122719
0.125468
0.128206
0.130936
0.133661
0.136383
0.139104
0.141825
0.144546
0.147268
0.149993
0.152719
0.155445
0.15817
0.160892
0.16361
0.166322
0.169027
0.171722
0.174407
0.177079
0.179738
0.182383
0.185016
0.187637
0.190245
0.192842
0.19543
0.198012
0.200589
0.203165
0.205742
0.208323
0.210913
0.213516
0.216135
0.218773
0.221436
0.22413
0.22686
0.229633
0.232453
0.23533
0.238272
0.241288
0.24439
0.247589
0.250901
0.254344
0.257941
0.261718
0.265711
0.269972
0.274563
0.279571
0.285117
0.29137
0.298577
0.307109
0.317541
0.330798
0.348407
0.372848
0.407518
0.453616
0.501931
0.536157
0.552757
0.559132
0.561353
0.562106
0.562362
0.562451
0.562482
0.562493
0.562497
0.562499
0.5625
0.5625
0.5625
0.5625
0.5625
0.5625
0.5625
0.5625
0.5625
0.5625
0.5625
0.5625
0.5625
0.5625
0.5625
0.5625
0.5625
0.5625
0.5625
0.5625
0.5625
0.5625
0.5625
0.5625
0.5625
0.5625
0.5625
0.5625
0.5625
0.5625
0.5625
0.5625
0.00026938
0.000561964
0.00122527
0.00238357
0.00403558
0.00611542
0.0085528
0.0112897
0.014279
0.0174809
0.0208597
0.024383
0.0280197
0.0317409
0.0355197
0.0393324
0.0431575
0.0469765
0.0507737
0.0545363
0.0582551
0.0619242
0.0655403
0.0690999
0.0726001
0.0760389
0.0794158
0.0827307
0.0859845
0.0891788
0.0923164
0.0954004
0.098434
0.10142
0.104362
0.107263
0.110127
0.112959
0.115762
0.118539
0.121295
0.124033
0.126758
0.129472
0.132178
0.134881
0.137582
0.140284
0.142987
0.145694
0.148404
0.15112
0.153839
0.156561
0.159284
0.162007
0.164728
0.167445
0.170157
0.172861
0.175554
0.178236
0.180906
0.183563
0.186208
0.188839
0.191458
0.194066
0.196666
0.199259
0.201848
0.204435
0.207025
0.20962
0.212224
0.214843
0.217478
0.220135
0.222819
0.225537
0.228294
0.231096
0.233951
0.236868
0.239856
0.242926
0.24609
0.249362
0.252761
0.256305
0.260021
0.263942
0.268111
0.272587
0.27745
0.282805
0.288804
0.295665
0.303713
0.313444
0.325648
0.341621
0.363495
0.394478
0.437227
0.486759
0.527016
0.548856
0.557745
0.560896
0.56196
0.562317
0.562437
0.562478
0.562492
0.562497
0.562499
0.5625
0.5625
0.5625
0.5625
0.5625
0.5625
0.5625
0.5625
0.5625
0.5625
0.5625
0.5625
0.5625
0.5625
0.5625
0.5625
0.5625
0.5625
0.5625
0.5625
0.5625
0.5625
0.5625
0.5625
0.5625
0.5625
0.5625
0.5625
0.5625
0.5625
0.5625
0.5625
0.5625
0.00109479
0.00164967
0.00260754
0.00399827
0.00579502
0.00795206
0.0104245
0.0131723
0.0161598
0.0193538
0.0227229
0.0262365
0.0298649
0.0335795
0.0373539
0.0411642
0.0449889
0.0488089
0.0526083
0.0563744
0.0600981
0.0637732
0.067395
0.0709588
0.0744607
0.0778985
0.0812712
0.0845786
0.0878216
0.0910024
0.0941242
0.09719
0.100203
0.103166
0.106083
0.108958
0.111794
0.114595
0.117366
0.120111
0.122833
0.125538
0.128229
0.13091
0.133585
0.136257
0.13893
0.141606
0.144286
0.146973
0.149668
0.15237
0.15508
0.157796
0.160517
0.16324
0.165964
0.168687
0.171406
0.17412
0.176824
0.179518
0.1822
0.184869
0.187525
0.190168
0.192798
0.195417
0.198026
0.200629
0.203228
0.205826
0.208426
0.211033
0.213649
0.21628
0.21893
0.221603
0.224306
0.227045
0.229826
0.232656
0.235544
0.238499
0.241532
0.244655
0.247882
0.251228
0.254714
0.258363
0.262206
0.266282
0.270644
0.275358
0.280525
0.28628
0.292815
0.300416
0.309516
0.320796
0.335368
0.355071
0.382821
0.421962
0.471008
0.516263
0.5439
0.555935
0.560301
0.561774
0.56226
0.56242
0.562473
0.562491
0.562497
0.562499
0.5625
0.5625
0.5625
0.5625
0.5625
0.5625
0.5625
0.5625
0.5625
0.5625
0.5625
0.5625
0.5625
0.5625
0.5625
0.5625
0.5625
0.5625
0.5625
0.5625
0.5625
0.5625
0.5625
0.5625
0.5625
0.5625
0.5625
0.5625
0.5625
0.5625
0.5625
0.5625
0.5625
0.5625
0.00261235
0.00335524
0.00449163
0.0060118
0.00788742
0.0100861
0.0125761
0.0153273
0.0183106
0.0214972
0.0248582
0.0283646
0.0319874
0.0356985
0.039472
0.0432835
0.0471113
0.0509362
0.0547419
0.0585158
0.0622484
0.065933
0.0695629
0.0731317
0.0766351
0.0800703
0.0834361
0.0867322
0.0899603
0.0931227
0.0962229
0.0992642
0.10225
0.105183
0.108068
0.110908
0.113707
0.11647
0.1192
0.121902
0.124582
0.127243
0.129891
0.132529
0.135163
0.137796
0.140433
0.143076
0.145727
0.148388
0.151062
0.153748
0.156445
0.159154
0.161871
0.164594
0.167323
0.170052
0.172781
0.175506
0.178223
0.18093
0.183626
0.186309
0.188979
0.191633
0.194275
0.196904
0.199523
0.202135
0.204742
0.207349
0.209958
0.212573
0.2152
0.217842
0.220504
0.223191
0.225911
0.228668
0.231471
0.234327
0.237246
0.240239
0.243317
0.246493
0.249783
0.253207
0.256785
0.260545
0.264525
0.268771
0.273348
0.278335
0.283859
0.290091
0.297281
0.305811
0.316273
0.329626
0.347459
0.372359
0.407865
0.455055
0.503884
0.537636
0.553561
0.559517
0.561531
0.562187
0.562399
0.562467
0.562489
0.562496
0.562499
0.5625
0.5625
0.5625
0.5625
0.5625
0.5625
0.5625
0.5625
0.5625
0.5625
0.5625
0.5625
0.5625
0.5625
0.5625
0.5625
0.5625
0.5625
0.5625
0.5625
0.5625
0.5625
0.5625
0.5625
0.5625
0.5625
0.5625
0.5625
0.5625
0.5625
0.5625
0.5625
0.5625
0.5625
0.5625
0.00468628
0.0055353
0.00676346
0.00834817
0.010263
0.012482
0.01498
0.0177317
0.0207119
0.0238943
0.0272516
0.0307558
0.0343784
0.0380919
0.0418703
0.0456893
0.0495267
0.0533629
0.0571817
0.06097
0.0647183
0.0684176
0.072059
0.0756351
0.0791408
0.0825728
0.0859295
0.089211
0.0924196
0.0955584
0.0986312
0.101642
0.104593
0.10749
0.110335
0.113133
0.115886
0.1186
0.12128
0.12393
0.126556
0.129163
0.131756
0.134341
0.136924
0.139508
0.1421
0.144701
0.147315
0.149944
0.152592
0.155257
0.15794
0.160638
0.163351
0.166075
0.168808
0.171547
0.174288
0.177026
0.179759
0.182483
0.185196
0.187895
0.190579
0.193248
0.195901
0.198541
0.201169
0.20379
0.206404
0.209018
0.211635
0.214258
0.216893
0.219544
0.222216
0.224916
0.22765
0.230424
0.233246
0.236127
0.239077
0.242106
0.245228
0.248458
0.251815
0.255319
0.258996
0.262879
0.267012
0.271451
0.276273
0.281587
0.287536
0.294353
0.30237
0.312106
0.324394
0.340607
0.363027
0.395068
0.439439
0.490141
0.529878
0.550461
0.558482
0.561212
0.562093
0.562372
0.56246
0.562487
0.562496
0.562499
0.5625
0.5625
0.5625
0.5625
0.5625
0.5625
0.5625
0.5625
0.5625
0.5625
0.5625
0.5625
0.5625
0.5625
0.5625
0.5625
0.5625
0.5625
0.5625
0.5625
0.5625
0.5625
0.5625
0.5625
0.5625
0.5625
0.5625
0.5625
0.5625
0.5625
0.5625
0.5625
0.5625
0.5625
0.5625
0.5625
0.00715114
0.00805635
0.00932911
0.0109447
0.0128785
0.015108
0.0176108
0.0203647
0.0233462
0.0265306
0.0298915
0.0334013
0.0370322
0.0407569
0.0445494
0.048385
0.0522413
0.0560985
0.0599401
0.0637532
0.0675265
0.0712478
0.0749065
0.078494
0.0820041
0.0854329
0.0887789
0.0920428
0.0952274
0.098337
0.101376
0.104349
0.10726
0.110113
0.112911
0.115658
0.118357
0.121014
0.123632
0.126219
0.128779
0.131319
0.133845
0.136365
0.138884
0.141408
0.143943
0.146492
0.14906
0.151651
0.154265
0.156905
0.159569
0.162256
0.164964
0.167689
0.170429
0.173179
0.175935
0.178691
0.181444
0.184188
0.186922
0.189641
0.192343
0.195028
0.197695
0.200347
0.202984
0.205612
0.208234
0.210853
0.213476
0.216106
0.218747
0.221406
0.224088
0.226799
0.229545
0.232333
0.235175
0.238079
0.241057
0.244122
0.24729
0.250577
0.254005
0.257595
0.261381
0.265401
0.269707
0.274368
0.279481
0.285184
0.291669
0.299227
0.308322
0.31968
0.334496
0.354769
0.383663
0.424688
0.475536
0.520566
0.546471
0.557119
0.560792
0.56197
0.562338
0.562451
0.562485
0.562495
0.562499
0.5625
0.5625
0.5625
0.5625
0.5625
0.5625
0.5625
0.5625
0.5625
0.5625
0.5625
0.5625
0.5625
0.5625
0.5625
0.5625
0.5625
0.5625
0.5625
0.5625
0.5625
0.5625
0.5625
0.5625
0.5625
0.5625
0.5625
0.5625
0.5625
0.5625
0.5625
0.5625
0.5625
0.5625
0.5625
0.5625
0.5625
0.00988711
0.010823
0.0121187
0.0137507
0.0156962
0.0179345
0.0204451
0.0232071
0.0261982
0.0293943
0.0327694
0.0362963
0.0399474
0.0436955
0.0475143
0.0513792
0.0552672
0.0591589
0.0630378
0.06689
0.0707003
0.0744541
0.0781387
0.0817442
0.085263
0.0886904
0.0920248
0.0952678
0.0984234
0.101497
0.104496
0.107425
0.110288
0.11309
0.115834
0.118521
0.121157
0.123745
0.126291
0.128801
0.131282
0.13374
0.136185
0.138625
0.141066
0.143515
0.14598
0.148465
0.150976
0.153518
0.156092
0.158699
0.161341
0.164014
0.166716
0.169443
0.172192
0.174957
0.177732
0.180512
0.18329
0.186062
0.188822
0.191567
0.194293
0.196998
0.199681
0.202346
0.204993
0.207628
0.210256
0.21288
0.215508
0.218143
0.220791
0.223457
0.226147
0.228867
0.231624
0.234426
0.237285
0.240211
0.243217
0.246319
0.249533
0.25288
0.256382
0.260069
0.263977
0.268154
0.272662
0.277588
0.283056
0.28924
0.296404
0.304946
0.315498
0.329113
0.34755
0.373685
0.411263
0.460724
0.509831
0.541466
0.555355
0.560247
0.561812
0.562293
0.562439
0.562482
0.562495
0.562498
0.5625
0.5625
0.5625
0.5625
0.5625
0.5625
0.5625
0.5625
0.5625
0.5625
0.5625
0.5625
0.5625
0.5625
0.5625
0.5625
0.5625
0.5625
0.5625
0.5625
0.5625
0.5625
0.5625
0.5625
0.5625
0.5625
0.5625
0.5625
0.5625
0.5625
0.5625
0.5625
0.5625
0.5625
0.5625
0.5625
0.5625
0.5625
0.0128121
0.0137673
0.0150786
0.0167238
0.0186822
0.0209344
0.023461
0.0262417
0.0292548
0.0324764
0.0358804
0.0394397
0.0431267
0.0469142
0.0507757
0.0546864
0.0586239
0.0625691
0.0665053
0.0704145
0.0742782
0.0780794
0.0818031
0.085437
0.0889719
0.0924019
0.095725
0.0989439
0.102065
0.105096
0.108046
0.110923
0.113731
0.116475
0.119156
0.121776
0.124339
0.126847
0.129306
0.131724
0.134108
0.136468
0.138814
0.141155
0.1435
0.145857
0.148235
0.150641
0.153081
0.15556
0.158083
0.160652
0.163265
0.165921
0.168617
0.171348
0.174109
0.176893
0.179694
0.182504
0.185316
0.188124
0.19092
0.193699
0.196455
0.199187
0.201892
0.204571
0.207229
0.209871
0.212503
0.215132
0.217764
0.220404
0.223058
0.225732
0.22843
0.231159
0.233926
0.236742
0.239616
0.242562
0.245596
0.248734
0.251997
0.255407
0.258992
0.262787
0.266836
0.271196
0.275946
0.281195
0.287103
0.293904
0.301958
0.311829
0.324438
0.341323
0.36506
0.39936
0.446427
0.49806
0.535424
0.553135
0.559554
0.561611
0.562238
0.562424
0.562478
0.562494
0.562498
0.5625
0.5625
0.5625
0.5625
0.5625
0.5625
0.5625
0.5625
0.5625
0.5625
0.5625
0.5625
0.5625
0.5625
0.5625
0.5625
0.5625
0.5625
0.5625
0.5625
0.5625
0.5625
0.5625
0.5625
0.5625
0.5625
0.5625
0.5625
0.5625
0.5625
0.5625
0.5625
0.5625
0.5625
0.5625
0.5625
0.5625
0.5625
0.5625
0.0158657
0.0168368
0.0181639
0.0198266
0.0218057
0.0240826
0.0266386
0.0294538
0.0325064
0.035772
0.0392243
0.0428358
0.0465789
0.0504262
0.0543515
0.0583304
0.0623416
0.0663664
0.0703845
0.0743742
0.078314
0.0821841
0.0859667
0.0896465
0.0932106
0.0966512
0.0999656
0.103158
0.106237
0.109215
0.112106
0.11492
0.117664
0.120342
0.122954
0.125499
0.127977
0.130392
0.132749
0.135055
0.137323
0.139562
0.141785
0.144004
0.14623
0.148472
0.150741
0.153047
0.155397
0.157799
0.160258
0.162777
0.165355
0.16799
0.170679
0.173415
0.176192
0.179002
0.181837
0.184688
0.187546
0.190401
0.193246
0.196075
0.198893
0.201683
0.204434
0.207136
0.209805
0.212452
0.215085
0.217714
0.220345
0.222986
0.225642
0.228318
0.231019
0.233752
0.236525
0.239347
0.242232
0.245194
0.248251
0.251424
0.254736
0.258214
0.261892
0.265811
0.270025
0.274606
0.279653
0.28531
0.291787
0.299407
0.308675
0.320406
0.335968
0.357657
0.38901
0.433301
0.485843
0.528484
0.550455
0.558708
0.561367
0.562171
0.562406
0.562474
0.562493
0.562498
0.562499
0.5625
0.5625
0.5625
0.5625
0.5625
0.5625
0.5625
0.5625
0.5625
0.5625
0.5625
0.5625
0.5625
0.5625
0.5625
0.5625
0.5625
0.5625
0.5625
0.5625
0.5625
0.5625
0.5625
0.5625
0.5625
0.5625
0.5625
0.5625
0.5625
0.5625
0.5625
0.5625
0.5625
0.5625
0.5625
0.5625
0.5625
0.5625
0.5625
0.0189991
0.0199872
0.0213357
0.0230256
0.0250384
0.0273564
0.0299612
0.0328325
0.0359477
0.0392815
0.0428068
0.0464957
0.0503204
0.0542538
0.0582703
0.0623474
0.0664651
0.0706014
0.0747327
0.0788345
0.0828827
0.0868542
0.0907273
0.0944813
0.0980984
0.101566
0.104878
0.108041
0.111067
0.113977
0.116793
0.119531
0.1222
0.124805
0.12734
0.129802
0.132185
0.134491
0.136724
0.138895
0.141018
0.143106
0.145176
0.147243
0.149319
0.151416
0.153547
0.155724
0.157959
0.160261
0.162638
0.165093
0.167627
0.170236
0.172916
0.175659
0.178458
0.181303
0.184184
0.187089
0.190008
0.19293
0.195847
0.198775
0.201677
0.204538
0.207345
0.210094
0.21278
0.215437
0.218076
0.220709
0.223346
0.225994
0.228657
0.231339
0.234045
0.236781
0.239555
0.242378
0.245264
0.248231
0.251301
0.254499
0.257854
0.261401
0.26518
0.269242
0.273654
0.278507
0.283931
0.290117
0.297358
0.306109
0.317104
0.331568
0.351569
0.380421
0.421918
0.474164
0.520999
0.54741
0.557733
0.561087
0.562094
0.562386
0.562469
0.562492
0.562498
0.562499
0.5625
0.5625
0.5625
0.5625
0.5625
0.5625
0.5625
0.5625
0.5625
0.5625
0.5625
0.5625
0.5625
0.5625
0.5625
0.5625
0.5625
0.5625
0.5625
0.5625
0.5625
0.5625
0.5625
0.5625
0.5625
0.5625
0.5625
0.5625
0.5625
0.5625
0.5625
0.5625
0.5625
0.5625
0.5625
0.5625
0.5625
0.5625
0.5625
0.5625
0.0221696
0.0231792
0.0245588
0.0262899
0.0283553
0.0307372
0.0334168
0.0363725
0.0395802
0.0430129
0.0466424
0.0504404
0.054379
0.0584321
0.0625766
0.0667916
0.0710551
0.0753425
0.0796283
0.0838865
0.0880907
0.0922141
0.0962289
0.100107
0.10382
0.107347
0.110674
0.113804
0.116759
0.119575
0.122288
0.124928
0.127509
0.130032
0.132486
0.134858
0.137135
0.139313
0.141396
0.143397
0.145335
0.147231
0.149106
0.150978
0.152862
0.154772
0.156723
0.158732
0.160815
0.162986
0.165255
0.167627
0.170103
0.172679
0.175349
0.178103
0.180931
0.183821
0.186761
0.189739
0.192742
0.195755
0.198811
0.201863
0.20489
0.207866
0.210766
0.213575
0.216287
0.218953
0.221597
0.224237
0.226884
0.229548
0.23223
0.234931
0.237653
0.2404
0.243179
0.246002
0.248883
0.251846
0.254917
0.258129
0.26152
0.265133
0.269022
0.273249
0.277901
0.283099
0.289016
0.295922
0.304233
0.314621
0.328203
0.346869
0.373715
0.412729
0.463973
0.513682
0.544238
0.556705
0.560793
0.562015
0.562366
0.562464
0.56249
0.562497
0.562499
0.5625
0.5625
0.5625
0.5625
0.5625
0.5625
0.5625
0.5625
0.5625
0.5625
0.5625
0.5625
0.5625
0.5625
0.5625
0.5625
0.5625
0.5625
0.5625
0.5625
0.5625
0.5625
0.5625
0.5625
0.5625
0.5625
0.5625
0.5625
0.5625
0.5625
0.5625
0.5625
0.5625
0.5625
0.5625
0.5625
0.5625
0.5625
0.5625
0.5625
0.5625
0.0253388
0.0263769
0.0278005
0.0295923
0.0317352
0.034211
0.0369993
0.0400762
0.0434146
0.0469853
0.0507586
0.0547057
0.0587996
0.0630165
0.0673361
0.0717362
0.0761932
0.080683
0.0851805
0.0896597
0.0940929
0.0984491
0.102693
0.106817
0.110885
0.114723
0.118129
0.121236
0.124088
0.126749
0.129294
0.131777
0.134225
0.136636
0.138988
0.141248
0.143385
0.145386
0.147253
0.149005
0.15067
0.152283
0.153875
0.155468
0.15708
0.158726
0.160424
0.162197
0.164066
0.166053
0.168171
0.170428
0.172825
0.175355
0.178009
0.180775
0.183639
0.186588
0.189607
0.192683
0.1958
0.19898
0.202216
0.20547
0.208714
0.211904
0.214986
0.217911
0.220672
0.223351
0.225997
0.228641
0.231302
0.233989
0.236702
0.239436
0.242186
0.244953
0.24774
0.250558
0.253424
0.256363
0.259411
0.262613
0.266021
0.269693
0.273697
0.278118
0.283073
0.288725
0.295323
0.303259
0.31316
0.326069
0.34375
0.369127
0.406218
0.456267
0.507635
0.541343
0.555769
0.560531
0.561947
0.562348
0.562459
0.562489
0.562497
0.562499
0.5625
0.5625
0.5625
0.5625
0.5625
0.5625
0.5625
0.5625
0.5625
0.5625
0.5625
0.5625
0.5625
0.5625
0.5625
0.5625
0.5625
0.5625
0.5625
0.5625
0.5625
0.5625
0.5625
0.5625
0.5625
0.5625
0.5625
0.5625
0.5625
0.5625
0.5625
0.5625
0.5625
0.5625
0.5625
0.5625
0.5625
0.5625
0.5625
0.5625
0.5625
0.5625
0.0284711
0.0295468
0.0310316
0.0329092
0.0351622
0.037771
0.0407122
0.0439578
0.0474763
0.0512351
0.0552025
0.0593496
0.0636522
0.068089
0.0726386
0.0772799
0.0819919
0.086754
0.0915452
0.0963429
0.101121
0.105845
0.110731
0.11587
0.121004
0.12594
0.130312
0.13335
0.135909
0.138134
0.140215
0.142278
0.144389
0.146549
0.148703
0.150765
0.152653
0.154328
0.155787
0.15706
0.158202
0.159283
0.160356
0.161454
0.162595
0.163793
0.165068
0.166449
0.16797
0.169659
0.171538
0.173613
0.175883
0.178338
0.180961
0.183735
0.186642
0.189664
0.192785
0.19599
0.199265
0.202678
0.206186
0.209779
0.21343
0.21708
0.220591
0.223786
0.226618
0.229319
0.231968
0.234621
0.237313
0.240055
0.242838
0.245642
0.248451
0.251256
0.254054
0.25685
0.259663
0.262525
0.265484
0.268609
0.271974
0.275665
0.279775
0.284423
0.28977
0.296057
0.303658
0.313178
0.325622
0.342691
0.367208
0.403146
0.452251
0.504149
0.539536
0.555144
0.560367
0.561907
0.562339
0.562457
0.562489
0.562497
0.562499
0.5625
0.5625
0.5625
0.5625
0.5625
0.5625
0.5625
0.5625
0.5625
0.5625
0.5625
0.5625
0.5625
0.5625
0.5625
0.5625
0.5625
0.5625
0.5625
0.5625
0.5625
0.5625
0.5625
0.5625
0.5625
0.5625
0.5625
0.5625
0.5625
0.5625
0.5625
0.5625
0.5625
0.5625
0.5625
0.5625
0.5625
0.5625
0.5625
0.5625
0.5625
0.5625
0.5625
0.0315338
0.0326587
0.0342263
0.0362217
0.038627
0.0414203
0.0445731
0.0480504
0.0518138
0.0558254
0.0600515
0.0644646
0.069042
0.0737625
0.0786073
0.0835609
0.08861
0.0937433
0.0989504
0.104219
0.109533
0.115295
0.121713
0.128683
0.136272
0.14397
0.151171
0.154946
0.15691
0.158056
0.158985
0.160036
0.161397
0.16309
0.164979
0.166814
0.168342
0.169452
0.170128
0.17042
0.170454
0.170409
0.170414
0.170524
0.170748
0.171089
0.171563
0.17221
0.173083
0.174229
0.175675
0.177426
0.179469
0.181782
0.184335
0.187099
0.190047
0.193155
0.196404
0.19978
0.203299
0.207043
0.210995
0.215189
0.219671
0.224414
0.22907
0.232934
0.235899
0.238632
0.241263
0.243912
0.246656
0.249515
0.252455
0.255416
0.258348
0.261225
0.264029
0.266757
0.269419
0.272055
0.274743
0.277598
0.280749
0.284328
0.288479
0.293378
0.299268
0.306525
0.315758
0.327977
0.344886
0.369298
0.405087
0.453745
0.504865
0.53971
0.555161
0.560376
0.561915
0.562343
0.562459
0.562489
0.562497
0.562499
0.5625
0.5625
0.5625
0.5625
0.5625
0.5625
0.5625
0.5625
0.5625
0.5625
0.5625
0.5625
0.5625
0.5625
0.5625
0.5625
0.5625
0.5625
0.5625
0.5625
0.5625
0.5625
0.5625
0.5625
0.5625
0.5625
0.5625
0.5625
0.5625
0.5625
0.5625
0.5625
0.5625
0.5625
0.5625
0.5625
0.5625
0.5625
0.5625
0.5625
0.5625
0.5625
0.5625
0.5625
0.0345087
0.0357044
0.0373863
0.039539
0.0421408
0.0451628
0.0485676
0.0523643
0.0565118
0.0608621
0.0654305
0.0701896
0.0751167
0.0801955
0.0854166
0.0907765
0.0962774
0.101928
0.10774
0.113732
0.120265
0.12823
0.137703
0.148762
0.161797
0.174679
0.188624
0.193688
0.194371
0.19263
0.190694
0.189375
0.189176
0.190215
0.192208
0.195645
0.196951
0.197243
0.196483
0.194748
0.192325
0.189799
0.18754
0.185642
0.184059
0.182726
0.18163
0.180831
0.180432
0.180522
0.181141
0.182279
0.183895
0.185934
0.188337
0.191049
0.194024
0.197226
0.200633
0.204233
0.208117
0.212328
0.216963
0.222195
0.228357
0.235661
0.243234
0.248453
0.251805
0.254449
0.256876
0.259378
0.262159
0.265278
0.268627
0.271996
0.275258
0.278346
0.281216
0.28383
0.28617
0.28827
0.290263
0.292404
0.294943
0.298123
0.302188
0.307422
0.314228
0.323253
0.335572
0.352981
0.378335
0.415162
0.463481
0.511444
0.542549
0.556052
0.560616
0.56198
0.562361
0.562463
0.562491
0.562498
0.562499
0.5625
0.5625
0.5625
0.5625
0.5625
0.5625
0.5625
0.5625
0.5625
0.5625
0.5625
0.5625
0.5625
0.5625
0.5625
0.5625
0.5625
0.5625
0.5625
0.5625
0.5625
0.5625
0.5625
0.5625
0.5625
0.5625
0.5625
0.5625
0.5625
0.5625
0.5625
0.5625
0.5625
0.5625
0.5625
0.5625
0.5625
0.5625
0.5625
0.5625
0.5625
0.5625
0.5625
0.5625
0.5625
0.0373763
0.0386737
0.0405166
0.0428894
0.0457657
0.0491057
0.0528604
0.0570152
0.0615224
0.0662319
0.0715137
0.0767244
0.0820889
0.0876176
0.09332
0.0992156
0.105336
0.111728
0.118456
0.125612
0.1351
0.147514
0.163582
0.181212
0.202494
0.218548
0.238787
0.243327
0.242986
0.236359
0.230276
0.225747
0.223759
0.224874
0.23162
0.24168
0.24585
0.245857
0.243288
0.238027
0.230473
0.222809
0.216208
0.210741
0.206049
0.201802
0.197874
0.194365
0.19154
0.189621
0.188691
0.188705
0.189551
0.191097
0.193218
0.195809
0.198785
0.20209
0.205691
0.209582
0.213908
0.218776
0.224419
0.231321
0.240641
0.253067
0.26656
0.273273
0.277047
0.278948
0.280651
0.282666
0.285519
0.289416
0.294538
0.299258
0.303345
0.307068
0.310361
0.313104
0.315138
0.316362
0.31695
0.31761
0.318872
0.321248
0.325201
0.33124
0.340109
0.353017
0.371897
0.399461
0.437869
0.483697
0.523913
0.547665
0.557645
0.561049
0.56209
0.562389
0.562471
0.562492
0.562498
0.5625
0.5625
0.5625
0.5625
0.5625
0.5625
0.5625
0.5625
0.5625
0.5625
0.5625
0.5625
0.5625
0.5625
0.5625
0.5625
0.5625
0.5625
0.5625
0.5625
0.5625
0.5625
0.5625
0.5625
0.5625
0.5625
0.5625
0.5625
0.5625
0.5625
0.5625
0.5625
0.5625
0.5625
0.5625
0.5625
0.5625
0.5625
0.5625
0.5625
0.5625
0.5625
0.5625
0.5625
0.5625
0.5625
0.5625
0.0401184
0.0415559
0.0436202
0.0462984
0.0495576
0.0533412
0.0575787
0.0622237
0.067208
0.0724184
0.0781244
0.0839692
0.0902572
0.0963652
0.102695
0.109316
0.116316
0.12382
0.132012
0.142492
0.157256
0.178997
0.206027
0.22783
0.254567
0.262296
0.269252
0.326321
0.348127
0.259426
0.254668
0.250751
0.249342
0.252485
0.264987
0.282445
0.289163
0.291825
0.291182
0.286026
0.274228
0.261464
0.251094
0.242875
0.235656
0.228556
0.221219
0.213863
0.207253
0.202109
0.198703
0.196954
0.196617
0.197422
0.199125
0.201534
0.204503
0.207936
0.211786
0.216059
0.220936
0.226621
0.233562
0.242801
0.25735
0.277176
0.297181
0.304658
0.308625
0.308238
0.30876
0.310032
0.313338
0.319494
0.333814
0.343516
0.350791
0.357245
0.362995
0.367671
0.370558
0.370618
0.367499
0.364251
0.362044
0.362179
0.365671
0.373501
0.386995
0.407893
0.437561
0.474496
0.511416
0.538675
0.553302
0.559383
0.561529
0.562215
0.56242
0.562479
0.562494
0.562499
0.5625
0.5625
0.5625
0.5625
0.5625
0.5625
0.5625
0.5625
0.5625
0.5625
0.5625
0.5625
0.5625
0.5625
0.5625
0.5625
0.5625
0.5625
0.5625
0.5625
0.5625
0.5625
0.5625
0.5625
0.5625
0.5625
0.5625
0.5625
0.5625
0.5625
0.5625
0.5625
0.5625
0.5625
0.5625
0.5625
0.5625
0.5625
0.5625
0.5625
0.5625
0.5625
0.5625
0.5625
0.5625
0.5625
0.5625
0.5625
0.0427228
0.044348
0.0467142
0.0498185
0.0536208
0.0580336
0.0629423
0.068253
0.0738718
0.0797281
0.0859776
0.092383
0.0992728
0.106944
0.114123
0.12177
0.130092
0.139384
0.15013
0.167553
0.191936
0.229058
0.266157
0.279594
0.290713
0.486421
0.560042
0.560349
0.556237
0.538483
0.34719
0.269358
0.267991
0.274018
0.295274
0.306116
0.423567
0.545468
0.517716
0.368835
0.28917
0.280799
0.27419
0.26897
0.263661
0.25701
0.248237
0.237434
0.226292
0.217013
0.210446
0.206498
0.204732
0.204678
0.205934
0.208189
0.211216
0.214863
0.219056
0.223821
0.229324
0.235897
0.244256
0.256304
0.278562
0.303481
0.318955
0.406472
0.46409
0.341361
0.339342
0.338272
0.341622
0.35277
0.39343
0.408179
0.421961
0.436632
0.452218
0.466109
0.474763
0.472271
0.454224
0.438626
0.427072
0.42228
0.42589
0.438372
0.459373
0.486488
0.51432
0.536645
0.550635
0.557722
0.560774
0.561928
0.562323
0.562448
0.562485
0.562496
0.562499
0.5625
0.5625
0.5625
0.5625
0.5625
0.5625
0.5625
0.5625
0.5625
0.5625
0.5625
0.5625
0.5625
0.5625
0.5625
0.5625
0.5625
0.5625
0.5625
0.5625
0.5625
0.5625
0.5625
0.5625
0.5625
0.5625
0.5625
0.5625
0.5625
0.5625
0.5625
0.5625
0.5625
0.5625
0.5625
0.5625
0.5625
0.5625
0.5625
0.5625
0.5625
0.5625
0.5625
0.5625
0.5625
0.5625
0.5625
0.5625
0.5625
0.0451832
0.0470546
0.0498328
0.0535441
0.0581418
0.0634757
0.0693331
0.0755459
0.0820031
0.0886668
0.0956183
0.102764
0.110384
0.118822
0.128547
0.137777
0.148283
0.16083
0.178755
0.212494
0.247248
0.298403
0.31543
0.48093
0.56
0.562117
0.562486
0.562492
0.562476
0.562379
0.559746
0.404423
0.294423
0.302285
0.328077
0.536321
0.562312
0.562468
0.562292
0.559354
0.381068
0.295334
0.292294
0.291239
0.289644
0.285809
0.277864
0.264071
0.246625
0.232242
0.222264
0.216146
0.213066
0.212302
0.213286
0.215585
0.218875
0.22293
0.227627
0.233013
0.239185
0.246586
0.256173
0.271172
0.304328
0.325172
0.513382
0.562137
0.562181
0.557998
0.495425
0.363575
0.36786
0.398232
0.45858
0.553684
0.562442
0.560619
0.562479
0.562435
0.562055
0.552946
0.485314
0.485465
0.479079
0.479268
0.489766
0.507216
0.52614
0.541719
0.551983
0.557656
0.560425
0.561671
0.562199
0.5624
0.562469
0.562491
0.562497
0.562499
0.5625
0.5625
0.5625
0.5625
0.5625
0.5625
0.5625
0.5625
0.5625
0.5625
0.5625
0.5625
0.5625
0.5625
0.5625
0.5625
0.5625
0.5625
0.5625
0.5625
0.5625
0.5625
0.5625
0.5625
0.5625
0.5625
0.5625
0.5625
0.5625
0.5625
0.5625
0.5625
0.5625
0.5625
0.5625
0.5625
0.5625
0.5625
0.5625
0.5625
0.5625
0.5625
0.5625
0.5625
0.5625
0.5625
0.5625
0.5625
0.5625
0.5625
0.0474983
0.0496838
0.0530266
0.0576316
0.0634557
0.0702092
0.0774435
0.0848962
0.0924604
0.100137
0.108008
0.116129
0.124796
0.13438
0.145667
0.159645
0.174488
0.19451
0.237758
0.305225
0.331938
0.369577
0.553828
0.561968
0.562481
0.562498
0.5625
0.5625
0.5625
0.5625
0.562485
0.554287
0.46918
0.339474
0.483196
0.560165
0.562488
0.5625
0.562499
0.562486
0.558089
0.343983
0.440597
0.490682
0.475735
0.383411
0.323444
0.269877
0.25442
0.241109
0.230858
0.224097
0.220533
0.219616
0.220792
0.223579
0.227569
0.232437
0.237922
0.244141
0.25106
0.25911
0.269243
0.286823
0.331377
0.539711
0.562352
0.562499
0.562499
0.562482
0.56208
0.486819
0.403864
0.476742
0.537951
0.561117
0.562497
0.562497
0.5625
0.5625
0.5625
0.562492
0.562385
0.557002
0.510344
0.522283
0.536004
0.547304
0.554699
0.558802
0.560835
0.56177
0.562181
0.562363
0.562449
0.562483
0.562495
0.562498
0.5625
0.5625
0.5625
0.5625
0.5625
0.5625
0.5625
0.5625
0.5625
0.5625
0.5625
0.5625
0.5625
0.5625
0.5625
0.5625
0.5625
0.5625
0.5625
0.5625
0.5625
0.5625
0.5625
0.5625
0.5625
0.5625
0.5625
0.5625
0.5625
0.5625
0.5625
0.5625
0.5625
0.5625
0.5625
0.5625
0.5625
0.5625
0.5625
0.5625
0.5625
0.5625
0.5625
0.5625
0.5625
0.5625
0.5625
0.5625
0.5625
0.5625
0.5625
0.5625
0.0496681
0.0522344
0.0563472
0.062323
0.0701882
0.0793334
0.0886905
0.0979229
0.106977
0.115957
0.125062
0.134536
0.144796
0.156408
0.170396
0.189546
0.218783
0.263435
0.35744
0.434181
0.5506
0.559633
0.562426
0.562497
0.5625
0.5625
0.5625
0.5625
0.5625
0.5625
0.5625
0.562444
0.547522
0.383628
0.528923
0.56197
0.562497
0.5625
0.5625
0.5625
0.516124
0.405503
0.54241
0.561584
0.560686
0.496681
0.381511
0.274695
0.259137
0.246619
0.236755
0.230151
0.226821
0.226414
0.228485
0.232579
0.238216
0.244973
0.251947
0.259686
0.268633
0.279089
0.292727
0.317032
0.380078
0.55426
0.562468
0.5625
0.5625
0.5625
0.562498
0.542534
0.485113
0.554762
0.56058
0.562341
0.5625
0.5625
0.5625
0.5625
0.5625
0.5625
0.5625
0.562426
0.547112
0.55333
0.557763
0.560285
0.561521
0.56208
0.562321
0.562422
0.562463
0.562479
0.562492
0.562497
0.562499
0.5625
0.5625
0.5625
0.5625
0.5625
0.5625
0.5625
0.5625