/*--------------------------------*- C++ -*----------------------------------*\
| =========                 |                                                 |
| \\      /  F ield         | OpenFOAM: The Open Source CFD Toolbox           |
|  \\    /   O peration     | Version:  2.1.0                                 |
|   \\  /    A nd           | Web:      www.OpenFOAM.org                      |
|    \\/     M anipulation  |                                                 |
\*---------------------------------------------------------------------------*/
FoamFile
{
    version     2.0;
    format      ascii;
    class       volScalarField;
    location    "24090";
    object      kr_w;
}
// * * * * * * * * * * * * * * * * * * * * * * * * * * * * * * * * * * * * * //

dimensions      [0 0 0 0 0 0 0];

internalField   nonuniform List<scalar> 
15000
(
0.5625
0.562495
0.562106
0.557981
0.544826
0.523118
0.497515
0.471571
0.446891
0.424002
0.40298
0.383733
0.366117
0.349979
0.335178
0.321583
0.309075
0.297547
0.286901
0.27705
0.267915
0.259426
0.251516
0.244122
0.23719
0.230673
0.22453
0.218726
0.213229
0.208011
0.203048
0.198318
0.193799
0.189473
0.185323
0.181335
0.177494
0.17379
0.170209
0.166742
0.163379
0.160112
0.156933
0.153836
0.150815
0.147865
0.144982
0.142161
0.139399
0.136695
0.134047
0.131452
0.12891
0.12642
0.123982
0.121595
0.119261
0.116977
0.114744
0.112562
0.11043
0.108347
0.106313
0.104326
0.102385
0.100488
0.0986316
0.0968155
0.0950373
0.0932946
0.0915847
0.089905
0.0882534
0.086628
0.0850262
0.0834456
0.0818836
0.080338
0.0788065
0.0772874
0.075778
0.0742755
0.0727776
0.0712822
0.069787
0.0682891
0.0667853
0.0652724
0.0637471
0.0622055
0.0606427
0.0590525
0.057427
0.0557564
0.054028
0.0522257
0.0503282
0.0483069
0.0461238
0.0437265
0.0410419
0.0379664
0.0343527
0.0299986
0.0246683
0.0182608
0.0113376
0.00555298
0.00219944
0.000775803
0.000264483
9.07412e-05
3.18216e-05
1.14707e-05
4.25893e-06
1.62981e-06
6.42738e-07
2.61009e-07
1.09001e-07
4.67335e-08
2.05348e-08
9.23467e-09
4.24768e-09
1.9992e-09
9.64191e-10
4.77588e-10
2.43588e-10
1.28205e-10
6.96618e-11
3.89555e-11
2.22423e-11
1.2863e-11
7.48135e-12
4.34126e-12
2.50164e-12
1.42458e-12
7.97973e-13
4.38255e-13
2.35378e-13
1.23117e-13
6.2338e-14
3.02879e-14
1.39802e-14
6.08679e-15
2.46075e-15
9.39848e-16
2.66714e-16
3.17516e-18
0
0
0.562494
0.562387
0.560835
0.553321
0.536817
0.513885
0.488627
0.463601
0.439912
0.417916
0.39765
0.379028
0.361924
0.346209
0.331758
0.318455
0.306191
0.294866
0.284393
0.274691
0.265686
0.257309
0.249496
0.242188
0.235331
0.228882
0.2228
0.217052
0.211607
0.206439
0.201524
0.196839
0.192363
0.188078
0.183969
0.180021
0.17622
0.172553
0.169009
0.165577
0.162249
0.159016
0.15587
0.152805
0.149814
0.146894
0.144038
0.141243
0.138506
0.135825
0.133199
0.130624
0.1281
0.125626
0.123202
0.120829
0.118506
0.116232
0.114008
0.111833
0.109708
0.107631
0.105602
0.103619
0.101682
0.0997868
0.0979334
0.09612
0.094344
0.0926028
0.0908937
0.0892149
0.0875641
0.0859389
0.0843367
0.0827547
0.0811904
0.079642
0.0781072
0.0765835
0.0750677
0.0735574
0.0720505
0.0705449
0.0690372
0.0675239
0.0660021
0.0644684
0.0629184
0.0613477
0.0597506
0.0581203
0.056447
0.0547193
0.0529222
0.0510363
0.049036
0.0468873
0.0445443
0.0419434
0.0389962
0.0355791
0.0315214
0.0266102
0.0206761
0.0139308
0.00757789
0.00327517
0.00120831
0.000416161
0.000141426
4.86089e-05
1.70658e-05
6.14595e-06
2.2751e-06
8.66637e-07
3.39842e-07
1.37152e-07
5.69068e-08
2.42314e-08
1.05645e-08
4.70532e-09
2.13746e-09
9.89777e-10
4.67592e-10
2.25913e-10
1.12094e-10
5.74591e-11
3.06259e-11
1.70087e-11
9.71736e-12
5.64776e-12
3.31395e-12
1.95446e-12
1.15268e-12
6.75062e-13
3.89056e-13
2.19944e-13
1.21929e-13
6.61736e-14
3.49776e-14
1.7819e-14
8.64915e-15
3.97213e-15
1.71459e-15
6.8266e-16
1.93685e-16
3.17516e-18
0
0
0.562117
0.560865
0.55577
0.5434
0.524049
0.500875
0.476711
0.45313
0.430818
0.410008
0.390726
0.372911
0.35647
0.341301
0.327302
0.314375
0.302426
0.29137
0.281127
0.271623
0.26279
0.254562
0.24688
0.239685
0.232931
0.226575
0.22058
0.214913
0.209545
0.204451
0.199605
0.194987
0.190575
0.186352
0.182303
0.178413
0.174669
0.171056
0.167565
0.164185
0.160907
0.157722
0.154622
0.151601
0.148654
0.145773
0.142954
0.140194
0.13749
0.134839
0.132239
0.129689
0.127187
0.124733
0.122327
0.119969
0.117659
0.115397
0.113184
0.111018
0.1089
0.106831
0.104809
0.102832
0.1009
0.09901
0.0971618
0.0953533
0.0935817
0.0918446
0.0901397
0.0884646
0.0868172
0.0851949
0.0835947
0.082014
0.0804508
0.0789028
0.0773675
0.0758417
0.0743227
0.0728081
0.0712957
0.0697822
0.0682639
0.0667379
0.0652005
0.063648
0.0620758
0.0604782
0.0588486
0.0571793
0.0554596
0.053675
0.0518079
0.0498351
0.047726
0.0454392
0.042918
0.040084
0.0368279
0.0329986
0.0283994
0.0228315
0.0163116
0.00964502
0.00451805
0.00175117
0.000613888
0.000207962
7.03588e-05
2.41154e-05
8.4284e-06
3.0146e-06
1.10612e-06
4.17113e-07
1.61859e-07
6.46651e-08
2.6582e-08
1.12197e-08
4.84562e-09
2.13296e-09
9.53675e-10
4.32167e-10
1.98405e-10
9.24709e-11
4.40075e-11
2.16325e-11
1.11931e-11
6.21944e-12
3.58523e-12
2.10688e-12
1.25362e-12
7.58401e-13
4.64533e-13
2.85063e-13
1.71246e-13
1.00592e-13
5.81595e-14
3.32186e-14
1.86287e-14
1.01478e-14
5.2676e-15
2.57823e-15
1.19069e-15
4.88975e-16
1.30182e-16
0
0
0
0.558151
0.553558
0.543615
0.527638
0.507376
0.485173
0.462701
0.440884
0.420158
0.400695
0.382531
0.365637
0.349955
0.335416
0.321942
0.309454
0.297877
0.287138
0.277168
0.2679
0.259272
0.251224
0.243699
0.236645
0.230018
0.223779
0.217894
0.21233
0.207061
0.202061
0.197306
0.192774
0.188445
0.184303
0.180332
0.176517
0.172845
0.169304
0.165882
0.162568
0.159355
0.156232
0.153191
0.150227
0.147333
0.144502
0.141731
0.139014
0.136351
0.133737
0.13117
0.128649
0.126173
0.123742
0.121356
0.119016
0.116722
0.114473
0.112271
0.110115
0.108007
0.105946
0.103932
0.101962
0.100037
0.098154
0.0963129
0.0945112
0.0927465
0.0910161
0.0893177
0.087649
0.0860075
0.0843904
0.082795
0.0812187
0.0796593
0.0781143
0.0765807
0.0750554
0.0735361
0.07202
0.0705039
0.0689845
0.0674583
0.0659219
0.0643714
0.0628018
0.0612082
0.0595848
0.0579239
0.0562156
0.0544482
0.0526042
0.0506628
0.0485961
0.0463662
0.0439222
0.0411929
0.0380801
0.0344468
0.0301095
0.0248581
0.0185925
0.0117881
0.00595667
0.00243114
0.000870427
0.00029491
9.85109e-05
3.30378e-05
1.12181e-05
3.87504e-06
1.36644e-06
4.93376e-07
1.8292e-07
6.98151e-08
2.74827e-08
1.11624e-08
4.66709e-09
1.99752e-09
8.69232e-10
3.82153e-10
1.68906e-10
7.48208e-11
3.32089e-11
1.48416e-11
6.78456e-12
3.30289e-12
1.88505e-12
1.11252e-12
6.65549e-13
4.03217e-13
2.52216e-13
1.6347e-13
1.08832e-13
6.90154e-14
4.22646e-14
2.56363e-14
1.56091e-14
9.50009e-15
5.62004e-15
3.17199e-15
1.67966e-15
8.41418e-16
3.55618e-16
5.08026e-17
0
0
0
0.545522
0.537569
0.52473
0.507806
0.48839
0.46794
0.447449
0.427507
0.408427
0.390361
0.373365
0.357444
0.342574
0.328712
0.315806
0.3038
0.292632
0.282244
0.272577
0.263573
0.255175
0.247329
0.239982
0.233089
0.22661
0.22051
0.214755
0.209316
0.204166
0.199279
0.194633
0.190205
0.185977
0.181933
0.178057
0.174334
0.170751
0.167296
0.163958
0.160727
0.157592
0.154544
0.151577
0.148682
0.145853
0.143083
0.140369
0.137705
0.135089
0.132519
0.12999
0.127504
0.125058
0.122654
0.120291
0.117971
0.115693
0.113459
0.11127
0.109125
0.107027
0.104975
0.102968
0.101007
0.0990898
0.0972158
0.0953835
0.0935907
0.0918348
0.0901133
0.0884238
0.0867639
0.0851308
0.0835217
0.0819338
0.0803645
0.0788116
0.0772721
0.0757428
0.0742209
0.0727037
0.0711881
0.0696706
0.0681477
0.0666156
0.0650704
0.0635077
0.0619223
0.0603086
0.0586596
0.0569665
0.0552174
0.0533979
0.0514903
0.0494669
0.0472937
0.0449239
0.0422934
0.0393128
0.0358566
0.0317537
0.0267922
0.0208025
0.0140024
0.0076096
0.00328412
0.00120569
0.000409485
0.000135304
4.44881e-05
1.47003e-05
4.90781e-06
1.662e-06
5.72949e-07
2.01821e-07
7.29384e-08
2.71653e-08
1.04724e-08
4.19115e-09
1.73857e-09
7.40247e-10
3.1972e-10
1.38597e-10
5.97599e-11
2.54308e-11
1.06107e-11
4.32472e-12
1.73204e-12
7.30399e-13
4.71096e-13
2.89041e-13
1.76885e-13
1.09045e-13
7.03648e-14
4.89896e-14
3.85751e-14
2.58744e-14
1.63203e-14
1.03415e-14
6.7885e-15
4.62939e-15
3.04181e-15
1.9178e-15
1.11766e-15
5.96931e-16
2.76239e-16
3.17516e-18
0
0
0
0.524668
0.5154
0.502224
0.486206
0.468514
0.450096
0.431618
0.413509
0.39603
0.379333
0.363494
0.348548
0.3345
0.321333
0.309016
0.297511
0.286773
0.276755
0.26741
0.258686
0.250534
0.242904
0.235751
0.229036
0.222723
0.216779
0.211173
0.205876
0.200863
0.196108
0.191588
0.187282
0.183172
0.179242
0.175476
0.171861
0.168382
0.16503
0.161791
0.158656
0.155614
0.152657
0.149775
0.146962
0.144211
0.141513
0.138866
0.136265
0.133705
0.131185
0.128702
0.126255
0.123844
0.121469
0.119132
0.116833
0.114574
0.112355
0.110178
0.108045
0.105957
0.103914
0.101916
0.0999633
0.0980553
0.096191
0.0943688
0.0925865
0.0908414
0.0891311
0.0874529
0.0858042
0.084182
0.0825833
0.0810055
0.079446
0.077902
0.0763702
0.0748478
0.0733319
0.0718194
0.0703065
0.0687897
0.0672651
0.0657288
0.0641762
0.0626024
0.0610018
0.059368
0.0576928
0.0559655
0.0541726
0.0522964
0.0503159
0.0481976
0.0458994
0.0433625
0.0405049
0.0372119
0.033324
0.0286339
0.0229343
0.0162536
0.00946775
0.00434303
0.00164487
0.000561795
0.00018396
5.941e-05
1.91443e-05
6.19e-06
2.01581e-06
6.63443e-07
2.21493e-07
7.53368e-08
2.62485e-08
9.4335e-09
3.52756e-09
1.3852e-09
5.73273e-10
2.45066e-10
1.06029e-10
4.56791e-11
1.93282e-11
7.91997e-12
3.08756e-12
1.11598e-12
3.58708e-13
1.70294e-13
1.54345e-14
1.35897e-15
2.31787e-16
8.95396e-16
1.9178e-15
2.9402e-15
1.47359e-14
9.23338e-15
5.68037e-15
3.67049e-15
2.61633e-15
2.13689e-15
1.60346e-15
1.16211e-15
7.58864e-16
4.12771e-16
1.9051e-16
3.17516e-18
0
0
0
0.500077
0.491048
0.478867
0.464466
0.448706
0.432276
0.41568
0.399269
0.383282
0.367872
0.353136
0.339133
0.325888
0.313406
0.301675
0.290673
0.28037
0.270729
0.261712
0.253276
0.245376
0.237971
0.231023
0.224498
0.218364
0.212591
0.207149
0.202012
0.197152
0.192545
0.188168
0.184
0.180024
0.176223
0.172583
0.16909
0.165731
0.162496
0.159372
0.156348
0.153414
0.150561
0.14778
0.145063
0.142401
0.139789
0.13722
0.13469
0.132195
0.129734
0.127302
0.1249
0.122528
0.120186
0.117877
0.115601
0.113361
0.111157
0.108994
0.106871
0.104793
0.102758
0.100769
0.0988257
0.0969274
0.0950735
0.0932625
0.0914921
0.0897598
0.0880628
0.0863982
0.084763
0.083154
0.0815683
0.0800032
0.0784558
0.0769229
0.0754015
0.0738886
0.0723811
0.0708755
0.0693676
0.0678536
0.0663294
0.0647905
0.0632319
0.0616479
0.0600325
0.058378
0.0566744
0.0549093
0.0530673
0.0511269
0.0490597
0.0468303
0.0443812
0.0416383
0.0384963
0.0348071
0.0303716
0.0249628
0.0184849
0.0114852
0.00562342
0.00221388
0.00076415
0.000248636
7.90453e-05
2.49052e-05
7.82283e-06
2.45777e-06
7.74494e-07
2.45504e-07
7.85535e-08
2.54853e-08
8.43642e-09
2.8763e-09
1.02484e-09
3.90351e-10
1.63504e-10
7.14257e-11
3.14357e-11
1.36414e-11
5.73791e-12
2.29446e-12
8.46613e-13
2.72292e-13
6.54306e-14
3.95943e-15
0
0
0
0
0
0
3.17516e-18
3.17516e-18
3.17516e-18
3.17516e-18
7.62039e-17
9.7795e-16
8.06492e-16
7.14412e-16
5.20727e-16
3.11166e-16
9.84301e-17
0
0
0
0
0.475216
0.467017
0.456189
0.443468
0.429519
0.414876
0.399955
0.385061
0.370418
0.356184
0.342469
0.329349
0.316865
0.305039
0.293875
0.283362
0.273484
0.264215
0.255522
0.24737
0.239722
0.232544
0.225805
0.219478
0.213533
0.207942
0.202678
0.197715
0.193024
0.188581
0.184363
0.180349
0.176521
0.172864
0.169363
0.166007
0.162783
0.159679
0.156684
0.153787
0.150978
0.148245
0.14558
0.142973
0.140415
0.1379
0.135422
0.132975
0.130556
0.128161
0.125789
0.123438
0.121109
0.118804
0.116525
0.114273
0.112052
0.109864
0.107713
0.105601
0.10353
0.101504
0.0995225
0.0975871
0.095698
0.0938547
0.0920557
0.0902988
0.0885811
0.0868996
0.0852508
0.0836314
0.0820382
0.0804679
0.0789178
0.0773846
0.0758652
0.0743567
0.0728559
0.0713594
0.0698629
0.0683625
0.0668536
0.0653318
0.0637916
0.0622278
0.0606341
0.0590033
0.0573263
0.0555916
0.0537846
0.0518861
0.04987
0.0477012
0.0453323
0.0426964
0.0396936
0.0361872
0.0319885
0.0268636
0.0206372
0.0135906
0.0071168
0.00293563
0.00103047
0.000334363
0.000104917
3.2415e-05
9.9267e-06
3.02202e-06
9.16346e-07
2.77258e-07
8.38813e-08
2.54405e-08
7.76256e-09
2.39577e-09
7.54833e-10
2.47169e-10
8.76201e-11
3.86612e-11
1.77867e-11
8.12909e-12
3.61351e-12
1.53849e-12
6.14912e-13
2.22477e-13
6.74436e-14
1.33325e-14
3.33392e-16
0
0
0
0
0
0
0
0
0
0
0
3.17516e-18
3.17516e-18
4.60399e-16
3.39742e-16
2.00035e-16
3.17516e-18
0
0
0
0
0.451674
0.44439
0.434848
0.423622
0.411236
0.398127
0.384647
0.371071
0.357609
0.344423
0.331629
0.319314
0.307532
0.296318
0.285685
0.275637
0.266165
0.257249
0.248866
0.240985
0.233578
0.226622
0.220093
0.213965
0.208214
0.202815
0.197742
0.192966
0.18846
0.184197
0.180153
0.176307
0.172642
0.169142
0.165795
0.162589
0.159513
0.156557
0.153707
0.150954
0.148285
0.14569
0.143157
0.140676
0.138239
0.135837
0.133463
0.131113
0.12878
0.126463
0.124157
0.121864
0.119584
0.117319
0.115072
0.112846
0.110645
0.108472
0.106331
0.104227
0.102163
0.100142
0.0981662
0.0962373
0.0943564
0.0925233
0.0907368
0.0889944
0.087293
0.0856291
0.0839986
0.0823976
0.0808226
0.0792702
0.0777372
0.0762205
0.0747171
0.073224
0.0717376
0.0702544
0.0687699
0.0672792
0.0657778
0.0642605
0.0627208
0.0611529
0.0595499
0.0579027
0.0562005
0.0544301
0.052574
0.0506083
0.048501
0.0462076
0.0436654
0.0407872
0.0374482
0.0334671
0.0286113
0.0226561
0.0156919
0.00878502
0.00382368
0.00137428
0.000446484
0.000138666
4.21341e-05
1.26269e-05
3.74261e-06
1.09848e-06
3.19514e-07
9.21692e-08
2.63881e-08
7.50461e-09
2.1222e-09
5.9752e-10
1.67833e-10
4.71912e-11
1.33623e-11
7.00452e-12
3.5313e-12
1.70897e-12
7.90054e-13
3.46998e-13
1.42692e-13
5.30919e-14
1.64981e-14
2.77827e-15
3.17516e-18
0
0
0
0
0
0
0
0
0
0
0
0
0
3.11166e-16
2.15911e-16
7.30288e-17
0
0
0
0
0
0.429977
0.423512
0.415061
0.405078
0.393987
0.382153
0.369881
0.357422
0.344975
0.332699
0.320716
0.309117
0.297967
0.287307
0.277163
0.267542
0.258444
0.249854
0.241753
0.234121
0.226941
0.220195
0.213867
0.207935
0.20238
0.197179
0.192304
0.187729
0.183423
0.179357
0.175504
0.171842
0.168353
0.165024
0.161843
0.158801
0.155888
0.153093
0.150406
0.147815
0.145306
0.142867
0.140485
0.13815
0.135852
0.13358
0.131329
0.12909
0.126858
0.12463
0.122402
0.120175
0.11795
0.115729
0.113516
0.111317
0.109134
0.106974
0.104842
0.102743
0.100682
0.0986627
0.0966888
0.0947633
0.0928882
0.0910634
0.0892891
0.0875623
0.0858792
0.0842354
0.0826259
0.081046
0.0794916
0.0779592
0.0764453
0.0749471
0.0734617
0.0719863
0.070517
0.0690497
0.0675798
0.0661023
0.0646114
0.0631005
0.0615634
0.0599926
0.0583797
0.0567141
0.0549834
0.0531715
0.0512566
0.0492095
0.0469896
0.044539
0.0417758
0.0385829
0.0347943
0.0301864
0.0245102
0.0177157
0.0105568
0.00487159
0.00180424
0.000589374
0.000181685
5.4447e-05
1.6024e-05
4.6454e-06
1.32755e-06
3.73981e-07
1.0382e-07
2.83846e-08
7.63552e-09
2.01771e-09
5.22308e-10
1.31725e-10
3.19686e-11
7.22377e-12
1.35553e-12
1.1877e-13
7.16317e-15
1.61933e-16
0
3.17516e-18
4.34997e-16
3.65144e-16
7.58864e-16
3.17516e-18
0
0
0
0
0
0
0
0
0
0
0
0
0
3.17516e-18
1.84159e-16
8.57294e-17
3.17516e-18
0
0
0
0
0
0.410203
0.404416
0.396845
0.387859
0.377809
0.367007
0.355724
0.344188
0.332589
0.321083
0.309795
0.298818
0.288221
0.278053
0.268342
0.259103
0.250336
0.242032
0.234178
0.226767
0.219789
0.213234
0.20709
0.201343
0.195978
0.190974
0.186306
0.181945
0.177856
0.174005
0.170362
0.166901
0.163603
0.160457
0.157454
0.154588
0.151852
0.149236
0.146731
0.144322
0.141995
0.139735
0.137529
0.135362
0.133225
0.131106
0.128997
0.126889
0.124776
0.122652
0.120514
0.118363
0.116199
0.114027
0.111852
0.109679
0.107514
0.105365
0.103237
0.101139
0.0990754
0.0970522
0.0950746
0.0931447
0.0912582
0.0894248
0.0876501
0.0859376
0.0842762
0.0826571
0.0810741
0.079521
0.0779931
0.0764862
0.0749969
0.0735228
0.0720611
0.0706086
0.0691618
0.0677161
0.0662666
0.064807
0.0633309
0.0618306
0.0602988
0.0587266
0.0571034
0.0554172
0.0536529
0.0517907
0.0498034
0.0476541
0.0452899
0.0426351
0.0395809
0.0359719
0.031593
0.0261871
0.0196081
0.0123366
0.0060481
0.00231923
0.000764493
0.000234488
6.947e-05
2.01385e-05
5.73309e-06
1.60368e-06
4.40538e-07
1.1872e-07
3.13389e-08
8.08629e-09
2.03348e-09
4.96229e-10
1.16726e-10
2.61691e-11
5.47138e-12
1.01358e-12
1.40872e-13
4.81672e-15
0
0
0
0
0
0
0
0
0
0
0
0
0
0
0
0
0
0
0
0
0
0
3.49268e-17
3.17516e-18
0
0
0
0
0
0
0.392265
0.387019
0.380136
0.371927
0.362689
0.352698
0.342198
0.3314
0.320488
0.309614
0.298903
0.288449
0.278324
0.268577
0.259238
0.250324
0.241834
0.233766
0.226119
0.218891
0.21208
0.205684
0.199696
0.19411
0.188918
0.184104
0.179645
0.175511
0.171661
0.168052
0.164643
0.161404
0.158314
0.155364
0.15255
0.149871
0.147326
0.144907
0.142605
0.140404
0.138286
0.136235
0.134232
0.132263
0.130315
0.128376
0.126436
0.124484
0.122511
0.120511
0.11848
0.116417
0.114324
0.112207
0.110072
0.107926
0.105777
0.103635
0.101507
0.0994026
0.0973285
0.0952927
0.0932989
0.0913363
0.0894287
0.0875838
0.0858067
0.0840982
0.0824583
0.0808649
0.0793093
0.077784
0.076283
0.074802
0.0733383
0.0718898
0.0704544
0.0690293
0.0676107
0.0661939
0.0647729
0.0633405
0.0618882
0.0604071
0.0588873
0.0573176
0.0556857
0.053977
0.0521731
0.0502491
0.0481708
0.0458897
0.0433359
0.040408
0.0369599
0.0327863
0.0276281
0.0212787
0.0140091
0.00726464
0.00290113
0.000967158
0.000295665
8.67439e-05
2.48245e-05
6.96187e-06
1.91447e-06
5.15829e-07
1.35968e-07
3.4989e-08
8.7655e-09
2.12986e-09
4.99395e-10
1.12189e-10
2.39006e-11
4.75658e-12
8.65089e-13
1.39291e-13
1.89367e-14
1.58758e-16
0
0
0
0
0
0
0
0
0
0
0
0
0
0
0
0
0
0
0
0
0
0
0
0
0
0
0
0
0
0
0.37603
0.371202
0.364841
0.357214
0.348586
0.339204
0.329293
0.319058
0.308677
0.298299
0.288048
0.278017
0.268276
0.258874
0.249838
0.241181
0.232907
0.225022
0.217531
0.210438
0.203746
0.197459
0.191579
0.18611
0.181055
0.176408
0.172155
0.168264
0.164683
0.161352
0.158214
0.155226
0.152365
0.149624
0.147008
0.144526
0.142186
0.139985
0.137912
0.135952
0.13408
0.132275
0.130514
0.128779
0.127057
0.125334
0.123598
0.121836
0.120035
0.118185
0.116282
0.114324
0.112314
0.110259
0.108167
0.106048
0.103913
0.101773
0.099638
0.0975178
0.0954224
0.0933614
0.0913129
0.0893076
0.0873587
0.0854803
0.0836848
0.0819783
0.0803606
0.0787981
0.0772756
0.0757818
0.0743094
0.0728542
0.0714146
0.0699902
0.0685806
0.0671838
0.0657966
0.064414
0.0630294
0.0616334
0.0602158
0.0587643
0.0572656
0.0557055
0.0540685
0.0523363
0.0504856
0.0484847
0.0462889
0.0438329
0.0410216
0.037717
0.0337222
0.0287803
0.0226497
0.0154532
0.00840503
0.00349789
0.00118252
0.000360567
0.000104846
2.96622e-05
8.213e-06
2.22772e-06
5.91453e-07
1.53439e-07
3.88031e-08
9.53544e-09
2.26759e-09
5.18987e-10
1.13474e-10
2.34595e-11
4.51983e-12
7.9535e-13
1.24857e-13
1.74983e-14
3.78797e-15
0
0
0
0
0
0
0
0
0
0
0
0
0
0
0
0
0
0
0
0
0
0
0
0
0
0
0
0
0
0
0
0.361358
0.356841
0.350857
0.343642
0.335437
0.326475
0.316973
0.307133
0.29713
0.287114
0.277206
0.267496
0.25805
0.24891
0.240098
0.231626
0.223505
0.215743
0.208347
0.201323
0.194679
0.188424
0.182572
0.177097
0.17189
0.16714
0.163053
0.159422
0.15617
0.153201
0.150419
0.147758
0.145184
0.142695
0.140311
0.138059
0.135963
0.134032
0.132254
0.130608
0.129063
0.127583
0.12614
0.124712
0.123283
0.121841
0.120371
0.118854
0.117276
0.11562
0.11388
0.112053
0.110144
0.108162
0.10612
0.10403
0.101907
0.0997626
0.0976109
0.0954632
0.093331
0.0912004
0.0890788
0.0869899
0.084952
0.0829897
0.081133
0.0794054
0.0778051
0.0762802
0.0748
0.0733469
0.0719096
0.0704838
0.0690702
0.0676712
0.0662893
0.0649247
0.0635754
0.0622368
0.0609016
0.0595585
0.0581935
0.0567895
0.0553282
0.0537904
0.0521558
0.0504007
0.0484945
0.0463951
0.0440415
0.0413432
0.0381681
0.0343266
0.0295649
0.0236228
0.0165304
0.00931957
0.00401311
0.00138288
0.000420092
0.000121031
3.3869e-05
9.27187e-06
2.48649e-06
6.52782e-07
1.67492e-07
4.18994e-08
1.01859e-08
2.39622e-09
5.42473e-10
1.17322e-10
2.40013e-11
4.5805e-12
7.99008e-13
1.23377e-13
1.59552e-14
1.4701e-15
0
0
0
0
0
0
0
0
0
0
0
0
0
0
0
0
0
0
0
0
0
0
0
0
0
0
0
0
0
0
0
0
0.348117
0.343821
0.338083
0.331122
0.323167
0.314445
0.305176
0.295563
0.285788
0.276
0.266318
0.256826
0.24758
0.238614
0.229946
0.221589
0.213553
0.205842
0.198461
0.191415
0.184713
0.178369
0.172083
0.165751
0.15969
0.154097
0.149322
0.146099
0.143441
0.141171
0.139083
0.137045
0.13499
0.132921
0.13089
0.128975
0.127247
0.125733
0.124428
0.123301
0.122298
0.121357
0.12043
0.119488
0.118516
0.117505
0.116438
0.115292
0.114044
0.112672
0.111165
0.109522
0.107752
0.105869
0.103891
0.101836
0.0997238
0.0975709
0.0953925
0.093202
0.0910121
0.0887794
0.0865361
0.0842924
0.0820657
0.0798932
0.0778516
0.0760349
0.0744562
0.0729784
0.071554
0.0701524
0.0687554
0.0673579
0.0659656
0.0645888
0.0632354
0.0619095
0.0606116
0.0593385
0.058082
0.056828
0.0555561
0.0542403
0.0528536
0.0513683
0.0497564
0.0479858
0.0460152
0.0437858
0.0412111
0.0381626
0.0344543
0.0298349
0.0240387
0.0170549
0.00981491
0.00431943
0.00150984
0.000459981
0.000131191
3.63215e-05
9.84058e-06
2.61374e-06
6.8036e-07
1.73323e-07
4.31194e-08
1.04436e-08
2.45238e-09
5.5531e-10
1.20405e-10
2.47702e-11
4.77561e-12
8.48058e-13
1.35186e-13
1.85747e-14
2.0194e-15
3.49268e-17
0
0
0
0
0
0
0
0
0
0
0
0
0
0
0
0
0
0
0
0
0
0
0
0
0
0
0
0
0
0
0
0
0.33619
0.332032
0.326421
0.319564
0.311689
0.303026
0.293807
0.284251
0.274548
0.264853
0.255278
0.245898
0.236757
0.22788
0.219282
0.210969
0.20294
0.195192
0.18772
0.180522
0.173599
0.166446
0.158873
0.151083
0.143068
0.135396
0.128601
0.125179
0.123433
0.122426
0.121616
0.120706
0.119537
0.118098
0.116512
0.114991
0.11374
0.112839
0.112294
0.112059
0.112032
0.112068
0.112064
0.111976
0.111796
0.111523
0.111145
0.11063
0.10994
0.10904
0.107914
0.106565
0.105011
0.103279
0.101397
0.0993953
0.0973011
0.0951373
0.0929225
0.0906714
0.088378
0.0859959
0.0835447
0.0810121
0.0783821
0.0756825
0.0731136
0.0710406
0.069486
0.0680798
0.0667503
0.0654352
0.0640974
0.0627295
0.06135
0.0599886
0.0586664
0.0573946
0.0561782
0.0550169
0.0539035
0.0528206
0.0517358
0.0506044
0.0493809
0.0480216
0.0464848
0.0447247
0.0426825
0.0402728
0.0373687
0.033786
0.0292773
0.0235862
0.0167223
0.00962908
0.00425591
0.00149749
0.000458871
0.000130643
3.58144e-05
9.61745e-06
2.53527e-06
6.56113e-07
1.66548e-07
4.13989e-08
1.00508e-08
2.37431e-09
5.4295e-10
1.19382e-10
2.50228e-11
4.94499e-12
9.08138e-13
1.5196e-13
2.25214e-14
2.83225e-15
2.06386e-16
0
0
0
0
0
0
0
0
0
0
0
0
0
0
0
0
0
0
0
0
0
0
0
0
0
0
0
0
0
0
0
0
0
0.325432
0.321313
0.3157
0.308806
0.300869
0.292143
0.28288
0.27318
0.263255
0.253509
0.243922
0.23455
0.225427
0.216567
0.207968
0.199621
0.191509
0.18361
0.175899
0.168352
0.160547
0.151576
0.141608
0.130835
0.119195
0.108688
0.0983066
0.0947707
0.0943027
0.0955
0.0968472
0.0977747
0.0979152
0.0971828
0.095792
0.0934361
0.0925543
0.0923583
0.0928694
0.0940457
0.095711
0.0974753
0.0990794
0.100445
0.101598
0.102579
0.103392
0.103988
0.104287
0.104219
0.103756
0.10291
0.101719
0.100234
0.098511
0.0965989
0.0945406
0.0923698
0.0901106
0.0877786
0.0853238
0.082732
0.0799618
0.0769349
0.0735015
0.0696098
0.0657696
0.0632346
0.0616527
0.0604303
0.0593267
0.0582082
0.056987
0.0556438
0.0542328
0.0528447
0.0515302
0.0503116
0.0492016
0.0482088
0.0473343
0.0465612
0.0458373
0.0450699
0.0441742
0.0430732
0.0416989
0.0399829
0.0378379
0.0351373
0.031699
0.0272888
0.0216988
0.0150625
0.00846203
0.00368625
0.00129893
0.000402036
0.000115803
3.18265e-05
8.50189e-06
2.23284e-06
5.76766e-07
1.46487e-07
3.65463e-08
8.94096e-09
2.13867e-09
4.97886e-10
1.1209e-10
2.42012e-11
4.9596e-12
9.52552e-13
1.68757e-13
2.70111e-14
3.8102e-15
3.8102e-16
0
0
0
0
0
0
0
0
0
0
0
0
0
0
0
0
0
0
0
0
0
0
0
0
0
0
0
0
0
0
0
0
0
0
0.315733
0.31154
0.305775
0.29866
0.290461
0.281466
0.271958
0.262094
0.252085
0.242302
0.232043
0.222566
0.213392
0.204485
0.195816
0.18735
0.17904
0.170833
0.162666
0.154462
0.144275
0.132007
0.117683
0.103703
0.088898
0.079034
0.068001
0.0657236
0.0658922
0.0692474
0.0724607
0.0749387
0.0760501
0.0754249
0.0717395
0.066542
0.0644878
0.0644843
0.0657428
0.0683889
0.0723546
0.0765863
0.0804073
0.0837002
0.0866228
0.0893473
0.0919363
0.094307
0.0962564
0.0976008
0.098259
0.0982492
0.0976505
0.0965649
0.0950937
0.0933251
0.0913299
0.0891603
0.0868499
0.0844137
0.0817781
0.0789012
0.0756797
0.0718993
0.0670626
0.0610666
0.0551001
0.0523269
0.0508212
0.0500771
0.0494185
0.0486486
0.0475764
0.0461436
0.0443162
0.0426858
0.0413144
0.0400973
0.0390447
0.0381857
0.0375583
0.0371846
0.0370063
0.036807
0.0364283
0.0357235
0.034575
0.0328767
0.0305011
0.0272803
0.0230319
0.0176978
0.0116997
0.00626469
0.00267119
0.000950041
0.000301231
8.90802e-05
2.50822e-05
6.77824e-06
1.78388e-06
4.62378e-07
1.18042e-07
2.96742e-08
7.34073e-09
1.7844e-09
4.24933e-10
9.85867e-11
2.21067e-11
4.74211e-12
9.61132e-13
1.81508e-13
3.14119e-14
4.87388e-15
6.15982e-16
3.17516e-18
0
0
0
0
0
0
0
0
0
0
0
0
0
0
0
0
0
0
0
0
0
0
0
0
0
0
0
0
0
0
0
0
0
0
0.307002
0.302618
0.296535
0.28899
0.28029
0.270782
0.260805
0.250586
0.240352
0.230355
0.220117
0.210303
0.20041
0.191383
0.18257
0.173877
0.165214
0.156473
0.147509
0.136834
0.123129
0.105369
0.0866367
0.0737899
0.0603761
0.0569273
0.053973
0.0342548
0.0284685
0.0581871
0.0603296
0.0621461
0.0628116
0.0613363
0.0557679
0.0487324
0.0462357
0.0452764
0.0455065
0.0473878
0.0519423
0.05729
0.0619853
0.065947
0.0696123
0.0733932
0.0774916
0.0818055
0.0858644
0.0891481
0.0913844
0.092553
0.0927791
0.0922387
0.0911043
0.0895221
0.0876059
0.0854366
0.0830619
0.0804954
0.0776537
0.074455
0.0707088
0.0659841
0.0591133
0.0507705
0.043397
0.0408819
0.0395966
0.0397208
0.0395535
0.0391489
0.038113
0.0362425
0.0321728
0.0296244
0.0278163
0.026283
0.0249698
0.023938
0.0233164
0.0233035
0.0239753
0.0246896
0.0251836
0.0251532
0.0243754
0.0226945
0.0199917
0.0162489
0.0117421
0.00722874
0.00368863
0.00157083
0.000578514
0.000192317
5.95115e-05
1.7436e-05
4.87937e-06
1.31031e-06
3.42586e-07
8.83e-08
2.24352e-08
5.61922e-09
1.3875e-09
3.37643e-10
8.07874e-11
1.88763e-11
4.26391e-12
9.19226e-13
1.86287e-13
3.50094e-14
5.99153e-15
8.60469e-16
3.17516e-18
0
0
0
0
0
0
0
0
0
0
0
0
0
0
0
0
0
0
0
0
0
0
0
0
0
0
0
0
0
0
0
0
0
0
0
0.299149
0.294447
0.287852
0.279614
0.270103
0.259773
0.249066
0.238293
0.22768
0.217361
0.207072
0.197207
0.18727
0.176932
0.167873
0.158807
0.149559
0.139913
0.129562
0.114384
0.0959807
0.0731201
0.0552706
0.0498265
0.0456751
0.00599033
0.00015137
0.000132307
0.000390264
0.00158451
0.0287005
0.0539291
0.0544983
0.0520264
0.0440585
0.0404055
0.013759
0.00109845
0.00316538
0.0236858
0.046233
0.0493616
0.0519572
0.0540901
0.0563367
0.0592667
0.0633375
0.0686929
0.0746368
0.0799322
0.0838812
0.0863393
0.0874595
0.0874942
0.0866959
0.0852786
0.0834096
0.0812068
0.0787384
0.0760156
0.0729753
0.069487
0.0652659
0.0595854
0.0502273
0.0412697
0.0364033
0.0164876
0.00839156
0.0301765
0.0307011
0.0309817
0.0301093
0.0273394
0.0187844
0.0162011
0.0140026
0.0118703
0.00981895
0.00815966
0.00719991
0.00747069
0.00956997
0.011596
0.0132363
0.013954
0.0134112
0.0116307
0.00894541
0.00598363
0.00344478
0.001716
0.000752684
0.000296358
0.000106051
3.50214e-05
1.08309e-05
3.17292e-06
8.87394e-07
2.38115e-07
6.21774e-08
1.6013e-08
4.0657e-09
1.01783e-09
2.51562e-10
6.15333e-11
1.49091e-11
3.54373e-12
8.15709e-13
1.78933e-13
3.6635e-14
6.93773e-15
1.14623e-15
5.08026e-17
0
0
0
0
0
0
0
0
0
0
0
0
0
0
0
0
0
0
0
0
0
0
0
0
0
0
0
0
0
0
0
0
0
0
0
0
0.292086
0.286926
0.279577
0.270289
0.259528
0.247948
0.236194
0.224658
0.213534
0.202852
0.192459
0.182476
0.172521
0.162235
0.15123
0.141533
0.131283
0.120022
0.105552
0.0826316
0.0638117
0.0429774
0.0374688
0.00654853
0.000153954
2.34456e-05
8.56973e-07
5.1249e-07
1.47693e-06
7.37295e-06
0.000169757
0.0168355
0.0443564
0.0416666
0.0337578
0.00173936
1.14664e-05
1.94544e-06
1.26875e-05
0.00019413
0.0211497
0.0440375
0.0451093
0.0454861
0.0460611
0.0474683
0.0505002
0.0561605
0.0641124
0.0714081
0.0768955
0.0804442
0.0822857
0.0827479
0.0821524
0.0807764
0.0788433
0.0765179
0.073901
0.0709991
0.0677987
0.0641311
0.0596446
0.0531811
0.0409902
0.0345831
0.00352297
2.22048e-05
1.94879e-05
0.000278981
0.00511741
0.0248401
0.0238968
0.0179159
0.00904028
0.000553841
3.56766e-06
0.000115638
1.29504e-06
3.9468e-06
2.72378e-05
0.000601644
0.00610124
0.00608603
0.00674128
0.00672147
0.00566006
0.00404958
0.00249839
0.00135662
0.000664311
0.000300485
0.000127621
5.07724e-05
1.83843e-05
6.1001e-06
1.88724e-06
5.52504e-07
1.54566e-07
4.15507e-08
1.08692e-08
2.80397e-09
7.12388e-10
1.78165e-10
4.39641e-11
1.07919e-11
2.66992e-12
6.52429e-13
1.55078e-13
3.52411e-14
7.38226e-15
1.3812e-15
1.30182e-16
0
0
0
0
0
0
0
0
0
0
0
0
0
0
0
0
0
0
0
0
0
0
0
0
0
0
0
0
0
0
0
0
0
0
0
0
0
0.285728
0.279963
0.27155
0.260685
0.24799
0.234513
0.221303
0.208804
0.197091
0.186069
0.175554
0.165438
0.155374
0.145023
0.133762
0.121043
0.108837
0.094208
0.0685266
0.0406962
0.0326846
0.0235262
0.000544556
3.25633e-05
1.15126e-06
1.2147e-07
3.84105e-09
1.94759e-09
5.32256e-09
2.76244e-08
8.88346e-07
0.000514948
0.0078128
0.0306665
0.00631575
0.000143731
7.2702e-07
5.57527e-09
3.68746e-08
8.33331e-07
0.000273267
0.0295057
0.0113284
0.00557078
0.00709547
0.0206865
0.0350817
0.0537142
0.0604433
0.0668275
0.0721477
0.0758604
0.077885
0.0784137
0.0777363
0.0761517
0.0739327
0.0713046
0.0684426
0.0653226
0.0620014
0.0583273
0.0539767
0.0470929
0.0328389
0.00149746
9.06659e-06
5.26403e-08
3.62292e-08
1.11377e-06
2.5727e-05
0.00595068
0.0169312
0.00698798
0.0016224
8.48595e-05
1.81523e-07
1.94874e-07
2.65381e-09
5.38168e-09
2.55806e-08
4.99556e-07
7.04056e-06
0.000341775
0.00377978
0.00279929
0.00176223
0.000974321
0.000488525
0.000228609
0.000102254
4.47235e-05
1.94905e-05
8.35967e-06
3.10722e-06
1.02997e-06
3.16169e-07
9.19958e-08
2.5684e-08
6.9177e-09
1.81391e-09
4.68639e-10
1.18931e-10
2.9554e-11
7.19267e-12
1.74052e-12
4.46587e-13
1.13464e-13
2.81796e-14
6.68054e-15
1.37167e-15
1.58758e-16
0
0
0
0
0
0
0
0
0
0
0
0
0
0
0
0
0
0
0
0
0
0
0
0
0
0
0
0
0
0
0
0
0
0
0
0
0
0
0.280003