/*--------------------------------*- C++ -*----------------------------------*\
| =========                 |                                                 |
| \\      /  F ield         | OpenFOAM: The Open Source CFD Toolbox           |
|  \\    /   O peration     | Version:  2.1.0                                 |
|   \\  /    A nd           | Web:      www.OpenFOAM.org                      |
|    \\/     M anipulation  |                                                 |
\*---------------------------------------------------------------------------*/
FoamFile
{
    version     2.0;
    format      ascii;
    class       surfaceScalarField;
    location    "24090";
    object      phi_w;
}
// * * * * * * * * * * * * * * * * * * * * * * * * * * * * * * * * * * * * * //

dimensions      [1 -2 -2 0 0 0 0];

internalField   nonuniform List<scalar> 
29750
(
18.5881
18.6222
11.2195
7.36879
7.75891
3.4683
5.91066
1.90536
4.8563
1.19627
4.21958
0.836786
3.80368
0.631059
3.51127
0.499281
3.29509
0.407357
3.1307
0.339248
3.00417
0.286546
2.90689
0.244421
2.83307
0.209898
2.77862
0.181059
2.74046
0.156609
2.71619
0.13565
2.70386
0.117552
2.70184
0.101865
2.70871
0.0882624
2.72319
0.076496
2.74411
0.0663739
2.77042
0.0577451
2.80111
0.0504878
2.83529
0.0444978
2.8721
0.0396769
2.91074
0.0359209
2.95044
0.033122
2.99052
0.0311749
3.03038
0.0299771
3.06949
0.0294277
3.10739
0.0294317
3.14369
0.0299073
3.17806
0.0307896
3.21023
0.0320291
3.23995
0.0335795
3.26702
0.0353906
3.29126
0.0374125
3.31256
0.0395948
3.33087
0.0418816
3.34619
0.0442072
3.35859
0.0464965
3.36822
0.0486709
3.37531
0.050653
3.38015
0.0523653
3.38312
0.0537328
3.38464
0.0546875
3.38521
0.0551774
3.38537
0.0551636
3.38566
0.0546209
3.38664
0.0535359
3.38887
0.051914
3.39287
0.049784
3.39914
0.0471941
3.4081
0.0442061
3.42008
0.0408943
3.43534
0.0373449
3.45405
0.0336515
3.47628
0.0299121
3.50198
0.026225
3.53103
0.0226879
3.56322
0.0193946
3.59825
0.0164263
3.63576
0.0138425
3.67533
0.0116842
3.71653
0.00997832
3.75895
0.00873363
3.80216
0.00793915
3.84577
0.00756123
3.88943
0.00754682
3.93287
0.0078359
3.97586
0.00837566
4.01828
0.00911797
4.05999
0.0100117
4.10092
0.0110057
4.14106
0.0120524
4.18041
0.0131109
4.21906
0.0141547
4.25714
0.0151605
4.29477
0.0160859
4.33215
0.0168695
4.36952
0.0174573
4.40723
0.0178156
4.44568
0.017906
4.48527
0.0176693
4.52649
0.0170368
4.56991
0.015966
4.61615
0.0144539
4.66591
0.0124805
4.71988
0.00999279
4.7788
0.00696956
4.8436
0.00341214
4.91521
-0.000695784
4.99472
-0.00536972
5.08335
-0.0106169
5.18255
-0.0164306
5.29401
-0.0227982
5.41973
-0.0296847
5.56222
-0.0369854
5.72452
-0.0444904
5.91046
-0.0518424
6.12486
-0.0583796
6.37393
-0.0628809
6.66534
-0.0633095
7.00733
-0.0565071
7.40282
-0.0389882
7.82659
-0.013399
8.18093
-0.00783923
8.35559
-0.0727585
8.45045
-0.18272
8.62975
-0.267052
8.91221
-0.324043
9.26925
-0.372908
9.68474
-0.421269
10.152
-0.469296
10.6658
-0.514598
11.2194
-0.553899
11.8034
-0.58412
12.4072
-0.60392
13.0226
-0.615455
13.6485
-0.62589
14.2956
-0.647071
14.9881
-0.692556
15.7623
-0.77412
16.6606
-0.898278
17.722
-1.06144
18.9643
-1.24229
20.3566
-1.3923
21.7894
-1.43276
23.0708
-1.28142
24.0084
-0.937649
24.5756
-0.567136
24.8154
-0.239836
24.7693
0.0461381
24.4529
0.316418
23.8719
0.581061
23.0665
0.805385
22.1454
0.921048
21.1505
0.99497
20.0439
1.10661
18.7557
1.28821
17.2387
1.51691
15.5043
1.73441
13.6016
1.90274
11.6021
1.99945
9.57526
2.0269
7.57041
2.00487
5.61273
1.95769
3.70661
1.90611
1.84196
1.86464
1.84194
7.33465
11.2878
7.31898
7.38724
6.19597
4.61932
5.20157
2.99944
4.49682
2.07768
4.01386
1.53374
3.6719
1.18979
3.41934
0.956094
3.22698
0.78745
3.07799
0.659891
2.96205
0.559821
2.87236
0.479033
2.80423
0.412331
2.75417
0.356277
2.7195
0.308525
2.69809
0.267441
2.68817
0.231868
2.68824
0.200968
2.69694
0.174122
2.71307
0.150866
2.73548
0.130844
2.76316
0.113774
2.79512
0.0994293
2.83047
0.0876083
2.86835
0.0781158
2.90794
0.0707464
2.94849
0.0652889
2.98932
0.0615288
3.02983
0.0592519
3.0695
0.0582524
3.10787
0.0583428
3.14457
0.0593683
3.1793
0.0612035
3.21178
0.0637421
3.24176
0.0668891
3.26904
0.0705553
3.29344
0.0746519
3.31485
0.0790823
3.3332
0.0837296
3.34848
0.0884581
3.36077
0.0931183
3.37021
0.0975511
3.37702
0.101596
3.38152
0.105094
3.38408
0.107893
3.38513
0.10986
3.3852
0.110888
3.38483
0.110893
3.38457
0.109818
3.38502
0.107638
3.38674
0.10437
3.39028
0.100073
3.39615
0.0948386
3.40478
0.0887922
3.41653
0.0820845
3.43165
0.0748926
3.45031
0.0674091
3.47259
0.0598348
3.49844
0.0523726
3.52773
0.0452237
3.56025
0.0385736
3.59567
0.0325816
3.6336
0.0273745
3.67362
0.0230418
3.71529
0.0196402
3.75816
0.0171856
3.80178
0.0156447
3.84575
0.0149416
3.88972
0.0149755
3.93341
0.0156327
3.97661
0.0167954
4.01917
0.0183511
4.06098
0.0201954
4.10197
0.0222316
4.14211
0.0243751
4.18145
0.0265625
4.22007
0.028739
4.25806
0.0308344
4.29556
0.0327564
4.33274
0.0344088
4.36988
0.035708
4.40732
0.0365621
4.44544
0.0368594
4.48464
0.0364761
4.52542
0.0353248
4.5684
0.0333465
4.61417
0.0304785
4.66342
0.0266714
4.71686
0.0218738
4.77525
0.0160364
4.83949
0.00917135
4.91054
0.00127035
4.98947
-0.00769904
5.07753
-0.0177299
5.17618
-0.0287808
5.28712
-0.0407975
5.41243
-0.0536506
5.55471
-0.0670597
5.71717
-0.0805688
5.90392
-0.0933587
6.12036
-0.104014
6.3735
-0.110182
6.67214
-0.108249
7.02485
-0.093783
7.42841
-0.0659937
7.83215
-0.0446771
8.11601
-0.0913818
8.24562
-0.237173
8.36612
-0.401715
8.57276
-0.531243
8.86335
-0.638001
9.22089
-0.738991
9.63671
-0.840125
10.1067
-0.940348
10.6265
-1.03485
11.1891
-1.1167
11.7836
-1.17863
12.3957
-1.2161
13.0122
-1.23196
13.6274
-1.24105
14.2501
-1.26987
14.9066
-1.34901
15.6381
-1.50561
16.4974
-1.75757
17.5411
-2.10522
18.8143
-2.51541
20.3161
-2.89412
21.9407
-3.05734
23.4146
-2.7553
24.3789
-1.90202
24.9029
-1.09103
25.1014
-0.438333
25.0396
0.107972
24.7175
0.638479
24.0962
1.20244
23.1822
1.71942
22.2194
1.88383
21.2621
1.95223
20.2254
2.14328
18.9844
2.5293
17.4562
3.04503
15.6727
3.51797
13.6983
3.87711
11.6296
4.06817
9.55323
4.10329
7.52323
4.03488
5.56114
3.91976
3.66515
3.80208
1.81926
3.71051
3.6612
3.43413
7.86117
4.55106
6.29794
4.5761
4.67772
4.27981
3.45375
3.95288
2.61175
3.66991
2.03744
3.4382
1.63487
3.2507
1.3419
3.09943
1.1207
2.97792
0.94818
2.88126
0.809857
2.80566
0.696388
2.74818
0.601554
2.70642
0.521097
2.67842
0.452046
2.66252
0.392292
2.65727
0.340314
2.66139
0.294998
2.67369
0.255517
2.69304
0.221247
2.71841
0.19171
2.74881
0.166532
2.7833
0.145399
2.82097
0.128026
2.86098
0.114131
2.90248
0.10341
2.94473
0.0955479
2.98705
0.0902147
3.02884
0.0870793
3.06959
0.0858269
3.10889
0.0861786
3.14641
0.0879011
3.18184
0.090806
3.21493
0.09474
3.24543
0.099575
3.27313
0.105195
3.29787
0.111477
3.31949
0.11828
3.33793
0.125429
3.35314
0.132715
3.3652
0.13991
3.37425
0.146769
3.38052
0.153041
3.38432
0.158477
3.38604
0.162848
3.38616
0.165949
3.38521
0.167609
3.38375
0.167691
3.38239
0.166106
3.38175
0.16282
3.38244
0.157859
3.38505
0.151308
3.39011
0.143308
3.39808
0.13405
3.40934
0.123774
3.42417
0.112753
3.44274
0.101284
3.46513
0.0896777
3.49129
0.0782528
3.52108
0.0673186
3.55426
0.0571596
3.59046
0.0480193
3.62927
0.0400997
3.67022
0.0335513
3.71283
0.0284588
3.75661
0.0248364
3.80108
0.0226261
3.84579
0.0217079
3.89038
0.0219195
3.93457
0.0230757
3.97816
0.0249895
4.02101
0.0274818
4.06302
0.0303875
4.10411
0.0335678
4.1443
0.0369123
4.18363
0.0403331
4.22216
0.0437424
4.25998
0.0470317
4.29721
0.0500774
4.33403
0.0527517
4.37073
0.0549196
4.40762
0.0564164
4.44506
0.0570658
4.48349
0.0567056
4.52344
0.0552131
4.56553
0.0524924
4.61037
0.0484426
4.65863
0.0429589
4.71102
0.0360162
4.76838
0.0276049
4.83159
0.0177063
4.90157
0.00629225
4.97944
-0.00661607
5.06648
-0.0209565
5.16416
-0.0366542
5.27427
-0.0535711
5.39902
-0.0714442
5.5412
-0.0898047
5.70438
-0.107871
5.89327
-0.124276
6.11419
-0.136829
6.37543
-0.142181
6.68661
-0.135843
7.05264
-0.114803
7.44973
-0.0894004
7.78545
-0.109937
7.97022
-0.240498
8.08108
-0.440641
8.23659
-0.629058
8.466
-0.792531
8.76236
-0.946207
9.11975
-1.10056
9.53649
-1.25835
10.0122
-1.41658
10.5446
-1.56753
11.1272
-1.69935
11.7461
-1.79759
12.3798
-1.84984
13.0031
-1.85525
13.5985
-1.83646
14.171
-1.84233
14.75
-1.92795
15.3861
-2.14178
16.1497
-2.52117
17.131
-3.08644
18.4356
-3.81998
20.1529
-4.61147
22.2427
-5.1472
24.2678
-4.78039
25.1899
-2.82408
25.5556
-1.45666
25.6477
-0.530458
25.5701
0.185588
25.2815
0.927076
24.6132
1.87082
23.3466
2.98604
22.2878
2.94263
21.4532
2.78683
20.6115
2.98499
19.5001
3.64066
17.9292
4.61594
16.0318
5.41533
13.8894
6.01958
11.6647
6.29284
9.48482
6.2832
7.40811
6.11158
5.44346
5.8844
3.57358
5.67194
1.76995
5.51414
5.43115
1.8709
6.04588
2.93084
5.33616
3.35213
4.41371
3.43781
3.57131
3.37857
2.8922
3.26734
2.36693
3.14523
1.96255
3.0295
1.64766
2.9269
1.39803
2.8396
1.1963
2.76779
1.03022
2.71083
0.891219
2.66772
0.773229
2.63737
0.671904
2.61867
0.584107
2.61054
0.507553
2.61196
0.440557
2.62191
0.38187
2.63942
0.330555
2.66351
0.285903
2.69324
0.247371
2.72768
0.214529
2.76593
0.187009
2.80708
0.164468
2.85026
0.146546
2.89462
0.132849
2.9394
0.122953
2.98391
0.116406
3.02758
0.11275
3.06994
0.111549
3.11062
0.112419
3.14931
0.115045
3.18577
0.119184
3.21976
0.124649
3.25105
0.131299
3.27942
0.139007
3.30467
0.147633
3.32664
0.156994
3.34521
0.166856
3.36033
0.17694
3.37206
0.186925
3.38052
0.19647
3.38596
0.205222
3.38869
0.212837
3.38914
0.218996
3.38782
0.223413
3.38529
0.225843
3.38217
0.226095
3.37911
0.224042
3.37679
0.219634
3.37589
0.212902
3.37705
0.203961
3.38085
0.193006
3.3878
0.180306
3.39832
0.166193
3.4127
0.151048
3.43113
0.135287
3.4537
0.119345
3.48036
0.103662
3.51093
0.0886655
3.54512
0.0747498
3.58254
0.0622661
3.62272
0.0515005
3.66513
0.0426633
3.70921
0.0358741
3.7544
0.0311471
3.80016
0.0283923
3.846
0.0274293
3.89153
0.0280162
3.93648
0.0298798
3.98066
0.0327433
4.02392
0.0363479
4.0662
0.0404697
4.10746
0.0449312
4.14772
0.0496015
4.18704
0.0543771
4.22545
0.0591476
4.26303
0.063781
4.29988
0.0681271
4.3362
0.072017
4.37223
0.0752499
4.40827
0.0775941
4.4447
0.0788145
4.48199
0.0787011
4.52072
0.0770798
4.56148
0.0737904
4.60488
0.0687107
4.65168
0.0617514
4.70261
0.0528732
4.75848
0.0420785
4.82017
0.0293627
4.88866
0.0147471
4.9651
-0.00169109
5.05079
-0.0198509
5.14725
-0.0396007
5.25639
-0.0606644
5.38066
-0.0826029
5.52314
-0.104707
5.68797
-0.125771
5.88071
-0.143854
6.10884
-0.155972
6.38177
-0.15792
6.70765
-0.145645
7.07804
-0.122885
7.42919
-0.12466
7.65488
-0.223703
7.77008
-0.424975
7.89267
-0.646012
8.07312
-0.850853
8.31232
-1.04756
8.608
-1.24746
8.96196
-1.45646
9.37826
-1.67533
9.8612
-1.89975
10.4128
-2.11923
11.029
-2.31558
11.6939
-2.4625
12.3744
-2.53037
13.0219
-2.50274
13.5927
-2.4072
14.0854
-2.33501
14.5361
-2.37871
15.0068
-2.61239
15.5845
-3.09888
16.3974
-3.89937
17.6441
-5.06663
19.6172
-6.58458
22.6096
-8.13959
26.2242
-8.39498
26.5574
-3.15726
26.4818
-1.38107
26.3637
-0.412444
26.3116
0.237768
26.2253
1.01343
25.7284
2.36771
23.3031
5.41129
22.132
4.1138
21.6513
3.26746
21.2671
3.36918
20.4754
4.43242
18.7286
6.36276
16.6361
7.50784
14.1626
8.49304
11.6551
8.80038
9.3132
8.62508
7.18093
8.24383
5.23099
7.83433
3.41578
7.48715
1.68697
7.24296
7.11813
1.16117
5.02388
2.00839
4.66374
2.50973
4.11887
2.75871
3.54355
2.8533
3.01746
2.86296
2.56658
2.83034
2.19036
2.77988
1.87863
2.72516
1.61945
2.67352
1.40217
2.62879
1.21815
2.59284
1.06068
2.5664
0.924645
2.54957
0.806193
2.54211
0.702416
2.54354
0.611125
2.55327
0.530668
2.5706
0.459796
2.59476
0.397563
2.62497
0.343257
2.66039
0.296329
2.70016
0.256342
2.74338
0.222915
2.78916
0.195673
2.83656
0.174196
2.88472
0.158011
2.93285
0.146581
2.98026
0.139314
3.02638
0.135602
3.07081
0.134865
3.11324
0.136596
3.15345
0.140392
3.19124
0.145961
3.22641
0.153112
3.25876
0.161721
3.28804
0.171677
3.31403
0.182841
3.33651
0.195003
3.3553
0.207873
3.37032
0.221085
3.3816
0.234217
3.38927
0.246809
3.39357
0.258394
3.39485
0.268519
3.39356
0.276761
3.39025
0.282744
3.38554
0.286143
3.38011
0.2867
3.3747
0.284241
3.37006
0.27869
3.36695
0.270082
3.36609
0.258562
3.36815
0.244388
3.37369
0.227918
3.38317
0.209593
3.39694
0.189918
3.41519
0.169441
3.43802
0.148734
3.46536
0.128376
3.49701
0.108927
3.53263
0.0909137
3.57178
0.0748037
3.61388
0.0609889
3.65834
0.0497557
3.70449
0.0412636
3.75165
0.0355244
3.7992
0.0324056
3.84658
0.0316493
3.8934
0.0329058
3.93935
0.0357772
3.98426
0.0398667
4.02804
0.0448177
4.07066
0.0503454
4.11213
0.0562461
4.1525
0.0623841
4.19181
0.0686516
4.23009
0.0749311
4.26737
0.0810865
4.30377
0.0869526
4.33944
0.0923097
4.37457
0.0968774
4.40949
0.100348
4.44459
0.102419
4.48037
0.10282
4.51743
0.101302
4.5564
0.0976554
4.59792
0.0917244
4.64281
0.0834691
4.69181
0.0728522
4.74577
0.0598811
4.80556
0.0445951
4.87222
0.0271022
4.94694
0.00753022
5.03104
-0.0139787
5.12618
-0.0371398
5.23445
-0.0615385
5.35856
-0.0865124
5.50207
-0.111013
5.66989
-0.133337
5.8686
-0.150865
6.10689
-0.159743
6.39405
-0.155531
6.73041
-0.137955
7.07626
-0.128598
7.33015
-0.193823
7.45361
-0.375782
7.54904
-0.608332
7.68782
-0.836319
7.87641
-1.06004
8.11242
-1.29083
8.399
-1.53651
8.74309
-1.80137
9.15384
-2.08637
9.64172
-2.38773
10.2165
-2.69403
10.8821
-2.98119
11.626
-3.2064
12.402
-3.30641
13.1175
-3.21814
13.6649
-2.95461
14.0417
-2.71178
14.3025
-2.6395
14.5203
-2.83021
14.784
-3.36256
15.2301
-4.34554
16.1261
-5.96262
18.0622
-8.52064
22.3542
-12.4316
31.4619
-17.5026
28.3336
-30.1281
27.4504
-9.19049
27.014
0.278013
27.0872
1.87494
27.5795
5.66294
28.772
12.5756
22.0057
12.1776
21.2856
4.83382
21.753
2.80004
22.3304
2.79186
22.4057
4.35709
19.8736
8.89485
17.6213
9.76022
14.47
11.6443
11.4798
11.7905
8.93194
11.1729
6.77144
10.4043
4.88381
9.72197
3.17158
9.1994
1.56214
8.85242
8.68027
0.801028
4.42112
1.46353
4.21456
1.9344
3.86899
2.23262
3.46419
2.40241
3.05744
2.48675
2.67951
2.5186
2.34228
2.5207
2.04715
2.50788
1.79072
2.4895
1.568
2.47132
1.37394
2.45681
1.20406
2.44794
1.05461
2.44579
0.922548
2.45082
0.805473
2.46309
0.701496
2.4824
0.60915
2.50836
0.527306
2.54046
0.455105
2.57805
0.391898
2.62041
0.337198
2.66673
0.290616
2.71614
0.251804
2.76768
0.220384
2.82038
0.195912
2.87329
0.177843
2.92558
0.165519
2.97654
0.158182
3.02564
0.155034
3.07254
0.155301
3.11704
0.158322
3.15902
0.163597
3.19839
0.170807
3.23502
0.179791
3.26871
0.190489
3.29921
0.202854
3.3262
0.216779
3.34938
0.232044
3.36851
0.248302
3.38345
0.265083
3.3942
0.281833
3.40086
0.297952
3.4037
0.312831
3.40309
0.325894
3.39954
0.33661
3.39365
0.344496
3.3861
0.349133
3.37765
0.350182
3.36915
0.347403
3.36145
0.340686
3.35543
0.33006
3.35192
0.315711
3.35168
0.29797
3.35536
0.277301
3.3635
0.254273
3.37646
0.22953
3.39449
0.203774
3.41766
0.177735
3.44591
0.152146
3.479
0.127724
3.51652
0.105148
3.55796
0.0850321
3.60265
0.0678902
3.64985
0.0541072
3.69875
0.0438997
3.74853
0.0372853
3.79844
0.0340762
3.84784
0.0338974
3.89627
0.0362388
3.94344
0.0405276
3.98921
0.0462064
4.03357
0.052799
4.07656
0.0599577
4.11827
0.0674668
4.15877
0.0752055
4.19809
0.0830918
4.23624
0.0910452
4.27324
0.0989444
4.30913
0.106595
4.344
0.11372
4.37804
0.119964
4.41156
0.124932
4.44499
0.128217
4.47885
0.129459
4.51379
0.128319
4.55047
0.124556
4.58967
0.117998
4.63219
0.108617
4.67884
0.0964075
4.73048
0.0814302
4.78807
0.0638238
4.85265
0.0437738
4.92543
0.021467
5.00788
-0.0028398
5.10178
-0.0287325
5.20948
-0.0555787
5.33406
-0.0824037
5.47975
-0.107702
5.65236
-0.129162
5.85972
-0.143318
6.1111
-0.145692
6.41162
-0.133614
6.73976
-0.118684
7.01104
-0.153749
7.14819
-0.30413
7.22106
-0.532967
7.32105
-0.770269
7.46411
-1.00577
7.64561
-1.25091
7.86674
-1.51509
8.13415
-1.80493
8.4581
-2.12566
8.85248
-2.48086
9.33543
-2.87073
9.92931
-3.28794
10.6568
-3.70871
11.526
-4.07552
12.4903
-4.27077
13.381
-4.10882
13.9077
-3.4813
14.114
-2.91803
14.1118
-2.63731
13.9879
-2.70638
13.801
-3.17563
13.6131
-4.15762
13.5681
-5.91766
14.1512
-9.10378
17.2831
-15.5634
18.8364
-20.5903
49.2712
-41.1817
36.9189
-32.618
28.6109
-6.39265
30.8752
14.0288
34.4922
17.5876
28.374
8.52433
14.6619
2.18789
19.2518
3.01386
21.7449
3.72839
23.8956
7.18996
26.9435
14.4502
20.739
15.0993
19.5054
10.9939
14.6161
16.5336
10.8621
15.5445
8.16337
13.8717
6.08908
12.4786
4.36124
11.4498
2.82461
10.736
1.38999
10.287
10.0703
0.594466
4.04211
1.11796
3.90885
1.5296
3.67213
1.82587
3.3749
2.02448
3.05513
2.14952
2.73885
2.22347
2.44073
2.26427
2.16729
2.28516
1.92017
2.29544
1.6984
2.30144
1.4999
2.30735
1.32227
2.31588
1.16316
2.32872
1.02049
2.34684
0.892495
2.37074
0.777699
2.40055
0.674926
2.43616
0.583252
2.47725
0.501974
2.52335
0.430579
2.57382
0.368699
2.62792
0.316053
2.68472
0.27237
2.74321
0.237327
2.80231
0.210491
2.86097
0.191264
2.91825
0.178854
2.9734
0.172293
3.02591
0.170518
3.07556
0.17249
3.12231
0.177332
3.16623
0.184429
3.20737
0.193464
3.24572
0.204369
3.28108
0.217226
3.31313
0.232123
3.34146
0.249043
3.36563
0.267779
3.38529
0.287912
3.4002
0.308835
3.41031
0.329818
3.41574
0.350075
3.41676
0.368838
3.41381
0.385388
3.40743
0.399072
3.39829
0.409294
3.38715
0.415525
3.37487
0.417316
3.36243
0.414342
3.35082
0.406435
3.34108
0.393621
3.33418
0.376125
3.33101
0.354369
3.33233
0.328943
3.33875
0.30057
3.3507
0.270069
3.36845
0.238316
3.39207
0.206219
3.42149
0.17469
3.45642
0.144626
3.49641
0.116882
3.54082
0.0922456
3.58887
0.0713957
3.63964
0.0548543
3.69213
0.0429242
3.74532
0.0356371
3.79826
0.0327269
3.85018
0.0336506
3.90056
0.0376641
3.94911
0.0439373
3.9958
0.0516862
4.04073
0.0602839
4.08407
0.0693177
4.12601
0.0785799
4.16665
0.0880143
4.20604
0.0976278
4.24414
0.107411
4.28089
0.117284
4.31625
0.127038
4.35025
0.136327
4.38301
0.144695
4.41485
0.151635
4.44623
0.156602
4.47771
0.159087
4.51002
0.158647
4.54391
0.15501
4.58029
0.148034
4.61998
0.137679
4.66386
0.124016
4.71287
0.107216
4.76802
0.0875239
4.83034
0.0652003
4.90113
0.040557
4.98198
0.0140375
5.07494
-0.0137827
5.18266
-0.0419881
5.30876
-0.0692304
5.45829
-0.0933839
5.63821
-0.111292
5.85734
-0.118634
6.12318
-0.111416
6.42655
-0.0944277
6.7047
-0.10567
6.86066
-0.218499
6.91935
-0.431611
6.98376
-0.668871
7.08555
-0.905316
7.21896
-1.1512
7.38144
-1.41738
7.5769
-1.71181
7.81341
-2.04184
8.1029
-2.41528
8.46261
-2.84061
8.91822
-3.32635
9.50854
-3.87825
10.29
-4.49018
11.3307
-5.11621
12.6523
-5.59235
14.0085
-5.46506
14.471
-3.94373
14.3947
-2.84176
14.0427
-2.28532
13.5187
-2.18236
12.819
-2.47596
11.853
-3.19167
10.382
-4.44662
7.69162
-6.4134
12.2562
-9.03026
-1.755
-14.8574
57.8349
-6.65231
63.1442
-12.9807
49.0323
1.46683
34.434
11.1387
25.4289
16.9707
22.0376
22.6235
15.4878
25.1063
19.9664
28.8687
25.2064
29.4439
31.1559
19.3096
27.5925
13.7023
16.6336
12.6734
25.0451
29.6745
13.6271
27.9515
9.18929
19.9824
6.77033
16.2907
5.06027
14.1887
3.64745
12.8627
2.37562
12.0079
1.1732
11.4895
11.2435
0.461201
3.79001
0.881248
3.69552
1.23237
3.5218
1.5061
3.29345
1.7082
3.03537
1.8514
2.76755
1.95004
2.50368
2.01715
2.25193
2.06339
2.01648
2.09695
1.79895
2.12381
1.59943
2.14824
1.4172
2.17322
1.2512
2.20072
1.10026
2.23205
0.963277
2.26797
0.839234
2.30888
0.727288
2.35488
0.626769
2.40586
0.537185
2.46147
0.458209
2.52118
0.38965
2.58424
0.331384
2.64968
0.283285
2.71637
0.245156
2.78308
0.216639
2.84856
0.197112
2.91169
0.185639
2.97162
0.180967
3.02788
0.181648
3.0804
0.186239
3.12941
0.193549
3.17526
0.202819
3.21828
0.213775
3.25857
0.226549
3.29597
0.241494
3.33005
0.258963
3.3602
0.279106
3.38577
0.301755
3.40621
0.326389
3.42118
0.352202
3.43057
0.378212
3.4345
0.403391
3.43331
0.426771
3.42749
0.447482
3.41765
0.46475
3.40452
0.477856
3.38894
0.486138
3.3719
0.48901
3.35452
0.486022
3.33801
0.476919
3.32358
0.461703
3.31242
0.44065
3.30558
0.414299
3.30396
0.383405
3.30825
0.348882
3.31895
0.311755
3.33635
0.273106
3.36054
0.234048
3.39143
0.195692
3.42868
0.159134
3.47177
0.125439
3.51997
0.0956083
3.57233
0.0705396
3.62771
0.050951
3.68484
0.0372814
3.74241
0.0296
3.79919
0.0275427
3.8542
0.030325
3.90683
0.0368506
3.95686
0.0459021
4.0044
0.0563619
4.04976
0.0673945
4.09333
0.0785269
4.13544
0.089621
4.17627
0.100767
4.21583
0.112145
4.25401
0.123886
4.29065
0.135976
4.32554
0.148206
4.35862
0.160164
4.38995
0.171257
4.41981
0.180777
4.44871
0.187995
4.47727
0.19222
4.50639
0.192904
4.53694
0.189693
4.56993
0.18247
4.60632
0.171242
4.64706
0.156215
4.69318
0.13772
4.74569
0.116116
4.8057
0.0917969
4.87461
0.065274
4.95416
0.0372034
5.04673
0.00842826
5.15541
-0.0198836
5.2846
-0.0456965
5.44038
-0.0661226
5.63086
-0.0770396
5.86456
-0.0738309
6.14017
-0.056739
6.41531
-0.0509822
6.59187
-0.125999
6.64755
-0.31374
6.68209
-0.544358
6.74732
-0.775315
6.83967
-1.01299
6.95279
-1.26938
7.087
-1.55318
7.24687
-1.87216
7.43998
-2.2351
7.67756
-2.6529
7.97687
-3.13993
8.36633
-3.71582
8.89661
-4.40851
9.664
-5.25758
10.8546
-6.30681
12.7796
-7.51735
15.5298
-8.21531
15.5729
-3.98684
14.9511
-2.21997
14.1456
-1.47984
13.2251
-1.26179
12.1033
-1.35419
10.5981
-1.6865
8.41519
-2.26372
5.07477
-3.07296
6.42898
-4.52185
6.45012
-7.07578
51.5065
-4.09825
77.5918
9.85375
58.7042
20.3544
40.2661
29.5767
31.0817
41.539
24.5203
50.3935
19.2502
54.8598
20.5416
55.7692
15.0721
50.1281
25.5485
42.2886
26.5636
41.2443
33.6347
54.3448
23.3221
48.9826
5.65794
24.3231
5.49757
20.1428
4.66837
17.1199
3.73424
15.1229
2.79265
13.8043
1.8572
12.9433
0.927207
12.4194
12.1707
0.36671
3.61816
0.707531
3.54606
1.00401
3.41073
1.24802
3.22722
1.44038
3.01226
1.58753
2.7808
1.69829
2.54453
1.78171
2.31168
1.84586
2.08754
1.89742
1.87521
1.94157
1.67625
1.98224
1.49123
2.02228
1.32012
2.06373
1.16257
2.108
1.01803
2.15602
0.88596
2.20836
0.765835
2.2653
0.657254
2.32688
0.55996
2.39291
0.47385
2.46291
0.398946
2.53614
0.335339
2.61155
0.283143
2.68785
0.24239
2.76355
0.212889
2.83708
0.194069
2.90702
0.18484
2.9723
0.183559
3.03248
0.188181
3.08772
0.196625
3.13868
0.207203
3.18622
0.218954
3.23105
0.231731
3.27352
0.246048
3.31344
0.262757
3.35019
0.28267
3.38284
0.306231
3.4104
0.333332
3.43203
0.363294
3.44719
0.394997
3.45575
0.427079
3.45788
0.458172
3.45402
0.48706
3.44476
0.512729
3.43076
0.534307
3.4128
0.550974
3.39181
0.561914
3.36891
0.566342
3.34542
0.563607
3.32279
0.553319
3.30253
0.535436
3.28607
0.510303
3.27469
0.478616
3.26944
0.441345
3.27112
0.399658
3.2803
0.354831
3.29729
0.308188
3.32219
0.261067
3.35487
0.214796
3.39498
0.170688
3.44194
0.130047
3.4949
0.094138
3.55274
0.0641503
3.61404
0.0410885
3.67716
0.0256231
3.74035
0.0179213
3.80197
0.0175123
3.86072
0.0232616
3.91588
0.033527
3.96732
0.0464826
4.01543
0.0605002
4.06089
0.0744565
4.10443
0.0878444
4.14659
0.100701
4.18764
0.113408
4.22757
0.126447
4.2661
0.140192
4.30287
0.154759
4.3375
0.169939
4.36971
0.185207
4.39947
0.199789
4.42703
0.212716
4.45294
0.222957
4.47796
0.229554
4.50318
0.231825
4.52971
0.229331
4.5587
0.221973
4.59129
0.209926
4.62857
0.193579
4.67158
0.17344
4.72137
0.150058
4.77918
0.124062
4.84654
0.0961829
4.92539
0.0673029
5.01842
0.0386443
5.1296
0.0120776
5.26418
-0.00983916
5.42947
-0.0231843
5.63407
-0.0229874
5.88165
-0.00695075
6.14593
0.00947655
6.34029
-0.0319462
6.40413
-0.187512
6.41693
-0.406247
6.45113
-0.628492
6.50964
-0.853241
6.58327
-1.09303
6.66898
-1.35706
6.76802
-1.6528
6.88394
-1.98826
7.02217
-2.37337
7.19053
-2.82129
7.40098
-3.35039
7.67363
-3.98845
8.04754
-4.78241
8.61477
-5.82484
9.64403
-7.33607
12.0816
-9.95491
19.7583
-15.892
17.3398
-17.2422
15.6912
-8.24801
14.3637
-2.97383
13.1327
-0.47464
11.771
0.111204
10.0209
0.796921
7.60595
1.73749
3.62588
0.907129
3.87505
-1.22482
9.42766
-2.72492
65.4585
24.9885
88.0924
45.3493
67.9265
40.5201
52.2284
45.2746
39.9363
53.831
28.9866
61.3432
20.1596
63.6868
14.9006
61.0283
7.23269
57.796
24.5042
63.0393
39.6641
64.2148
28.2726
55.3034
-1.33738
29.976
1.47758
22.7519
2.47467
19.1457
2.67135
16.9232
2.41566
15.3786
1.93171
14.2882
1.33332
13.5417
0.678427
13.0743
12.8491
0.294611
3.50315
0.572199
3.4447
0.820511
3.33346
1.03305
3.17928
1.20892
2.99384
1.35126
2.78845
1.46544
2.57289
1.55757
2.35483
1.63353
2.13995
1.69846
1.93215
1.75656
1.73394
1.81114
1.54681
1.86473
1.37153
1.9192
1.20835
1.97593
1.05724
2.0359
0.918001
2.09978
0.790418
2.16801
0.674335
2.24077
0.569724
2.318
0.476704
2.39931
0.395537
2.48394
0.326616
2.5708
0.270402
2.65835
0.227305
2.74473
0.197471
2.82785
0.180515
2.90573
0.175232
2.97692
0.179438
3.04092
0.190138
3.09829
0.20417
3.15043
0.219017
3.199
0.233431
3.24537
0.247551
3.29023
0.262591
3.33336
0.28028
3.37376
0.302217
3.40995
0.32933
3.44036
0.361588
3.46373
0.398026
3.47928
0.437
3.48684
0.476548
3.48677
0.514791
3.47969
0.550221
3.46634
0.58174
3.44743
0.608471
3.42374
0.629538
3.39624
0.643937
3.36618
0.650585
3.33513
0.648509
3.30491
0.637088
3.2774
0.616212
3.25438
0.586318
3.23742
0.548332
3.22775
0.503533
3.2263
0.453418
3.23366
0.399578
3.25017
0.343619
3.27592
0.287119
3.31076
0.231627
3.35434
0.178679
3.40603
0.129834
3.46491
0.0866781
3.52968
0.0507872
3.59857
0.0235948
3.66946
0.00617628
3.73994
-0.00106089
3.80772
0.00132334
3.87099
0.0116914
3.92884
0.0275289
3.98134
0.0460201
4.02939
0.0647341
4.07428
0.0821417
4.11728
0.0977685
4.15929
0.112027
4.20068
0.125843
4.24131
0.140222
4.28067
0.155904
4.31805
0.173188
4.35277
0.191882
4.38429
0.211322
4.4124
0.230439
4.43727
0.247872
4.45953
0.262167
4.48023
0.272
4.50068
0.27641
4.52236
0.274901
4.54666
0.267457
4.57494
0.254502
4.60843
0.236718
4.6482
0.214883
4.69538
0.189833
4.7513
0.162483
4.81766
0.133823
4.89673
0.105072
4.99185
0.0779802
5.10768
0.0550951
5.25083
0.0400681
5.42966
0.0377064
5.65011
0.0517522
5.89808
0.0744436
6.1045
0.0605665
6.18473
-0.0595948
6.1854
-0.261947
6.19468
-0.474219
6.22638
-0.684449
6.26985
-0.90479
6.31924
-1.14489
6.37325
-1.41177
6.43256
-1.71231
6.49882
-2.05459
6.57425
-2.44882
6.66143
-2.90848
6.76292
-3.45189
6.87967
-4.10519
7.00511
-4.90786
7.10354
-5.92328
7.02518
-7.25771
6.14451
-9.07423
18.4081
-11.4219
26.334
-22.1155
20.9654
-22.4269
16.8629
-13.3273
13.7185
-3.23339
12.4567
4.09249
10.9614
5.36702
6.77559
1.83071
1.49393
0.0587205
2.37495
0.97976
37.1411
1.55241
85.8193
34.8612
83.2632
47.9052
72.681
51.1021
60.7848
57.1707
47.4484
67.1673
31.3302
77.4614
17.5011
77.5159
11.6683
66.8612
12.476
56.9882
25.6797
49.8356
30.7527
39.1683
2.94511
18.4797
-8.5614
10.6738
-2.12866
16.3192
0.252172
16.7649
1.1267
16.0487
1.32533
15.1799
1.18519
14.4284
0.865939
13.861
0.453189
13.4871
13.3023
0.236155
3.43264
0.460958
3.3826
0.66634
3.28643
0.847605
3.15101
1.00354
2.98491
1.1357
2.79699
1.24739
2.59552
1.34269
2.3876
1.42572
2.17893
1.50025
1.97389
1.56943
1.77561
1.63585
1.58619
1.70155
1.40696
1.76809
1.23863
1.83669
1.08151
1.90832
0.935666
1.9837
0.801108
2.06339
0.677867
2.14775
0.566093
2.23684
0.466102
2.33038
0.37843
2.42773
0.303851
2.5277
0.243315
2.62852
0.197814
2.72778
0.168105
2.82257
0.154284
2.90994
0.155198
2.98762
0.167949
3.05495
0.187948
3.11314
0.210133
3.16484
0.230538
3.21312
0.247516
3.26041
0.261798
3.30792
0.275865
3.35529
0.292968
3.40087
0.316034
3.4422
0.346759
3.4768
0.385161
3.5027
0.429747
3.51882
0.47798
3.52509
0.526899
3.5222
0.573824
3.51121
0.616922
3.49307
0.655182
3.46849
0.687963
3.43814
0.714456
3.40289
0.733419
3.3641
0.743274
3.32371
0.742498
3.28403
0.730075
3.2475
0.705779
3.2164
0.670215
3.19262
0.624663
3.17764
0.570853
3.17246
0.510733
3.1777
0.446289
3.19367
0.379448
3.22042
0.312036
3.25781
0.245799
3.30549
0.18247
3.36288
0.123854
3.42902
0.0718984
3.50248
0.0286857
3.58116
-0.00367892
3.66222
-0.0234259
3.74233
-0.0296296
3.81808
-0.0228119
3.88682
-0.00532966
3.94733
0.0188843
4.00006
0.0453403
4.0468
0.070285
4.08991
0.0916199
4.13154
0.10908
4.17311
0.123839
4.21506
0.137789
4.25699
0.152789
4.29795
0.170144
4.33675
0.190403
4.37221
0.213358
4.40341
0.238124
4.42983
0.263229
4.45157
0.286747
4.46937
0.306552
4.48464
0.320726
4.49917
0.32793
4.51491
0.327609
4.5337
0.319978
4.55716
0.305835
4.5866
0.286295
4.62315
0.262583
4.66803
0.235954
4.72264
0.207641
4.7889
0.178979
4.86964
0.151681
4.96897
0.128128
5.09266
0.111726
5.24847
0.107246
5.44371
0.119481
5.6728
0.145583
5.8842
0.151899
5.98434
0.0659755
5.98238
-0.116882
5.97312
-0.319108
5.98445
-0.515296
6.00604
-0.716074
6.02975
-0.931549
6.05236
-1.16837
6.07271
-1.43237
6.09028
-1.72996
6.10459
-2.06891
6.11459
-2.45885
6.11802
-2.91192
6.10962
-3.44347
6.077
-4.07256
5.98969
-4.82057
5.76911
-5.70269
5.20866
-6.69726
3.79684
-7.66241
7.71451
-8.22968
26.0226
-12.8495
30.065
-10.0772
26.9568
-1.24949
21.0444
-0.459476
13.7312
3.62124
7.42512
8.78202
5.0036
16.3786
2.41497
25.3417
2.9476
39.3883
70.4499
65.9989
98.8632
74.2666
86.46
60.3083
78.7496
58.8123
70.7815
65.1386
57.7425
80.2062
31.3846
103.819
6.84642
102.054
1.7953
71.9123
5.32339
53.4601
15.0123
40.1466
10.0641
27.2261
-4.86071
15.0087
-2.91602
13.5462
-1.68298
15.0862
-0.464036
15.546
0.257944
15.3267
0.573772
14.8641
0.617797
14.3844
0.492059
13.9867
0.26839
13.7108
13.5707
0.186115
3.40003
0.364782
3.35494
0.530927
3.26766
0.681497
3.14333
0.815618
2.98861
0.934228
2.81082
1.03946
2.61722
1.13402
2.41451
1.22068
2.20843
1.30196
2.00366
1.38002
1.80374
1.45662
1.61122
1.53321
1.42776
1.61096
1.25435
1.69085
1.09149
1.77376
0.939397
1.86046
0.798168
1.95162
0.667918
2.04776
0.548883
2.14916
0.441545
2.2558
0.346727
2.36719
0.265646
2.4822
0.199891
2.59881
0.151305
2.71396
0.121701
2.82349
0.112239
2.92269
0.12232
3.00762
0.148274
3.07714
0.182688
3.13355
0.217046
3.18182
0.244705
3.2274
0.263558
3.27448
0.275563
3.32502
0.285446
3.37836
0.299064
3.43159
0.321595
3.4806
0.355941
3.52139
0.402013
3.55094
0.457312
3.56774
0.517794
3.57201
0.578787
3.5653
0.636254
3.54947
0.688046
3.52585
0.733721
3.49499
0.77339
3.4571
0.806577
3.41274
0.831699
3.36333
0.846303
3.31129
0.847861
3.25974
0.834679
3.21194
0.806377
3.17084
0.763872
3.13881
0.70904
3.11752
0.644289
3.10801
0.57219
3.11086
0.495235
3.12626
0.415705
3.15419
0.335653
3.19448
0.256958
3.24688
0.181466
3.31092
0.11116
3.38581
0.0483442
3.47012
-0.00424608
3.56141
-0.0435361
3.65602
-0.0665259
3.74915
-0.0711546
3.83557
-0.0575254
3.91104
-0.0289661
3.97378
0.0081303
4.025
0.0463238
4.06813
0.0796101