/*--------------------------------*- C++ -*----------------------------------*\
| =========                 |                                                 |
| \\      /  F ield         | OpenFOAM: The Open Source CFD Toolbox           |
|  \\    /   O peration     | Version:  2.1.0                                 |
|   \\  /    A nd           | Web:      www.OpenFOAM.org                      |
|    \\/     M anipulation  |                                                 |
\*---------------------------------------------------------------------------*/
FoamFile
{
    version     2.0;
    format      ascii;
    class       volScalarField;
    location    "24090";
    object      po;
}
// * * * * * * * * * * * * * * * * * * * * * * * * * * * * * * * * * * * * * //

dimensions      [1 -1 -2 0 0 0 0];

internalField   nonuniform List<scalar> 
15000
(
6648.85
6630.26
6619.04
6611.28
6605.37
6600.52
6596.3
6592.49
6588.98
6585.69
6582.56
6579.55
6576.64
6573.81
6571.03
6568.29
6565.58
6562.87
6560.17
6557.46
6554.74
6551.99
6549.22
6546.42
6543.59
6540.72
6537.8
6534.85
6531.86
6528.83
6525.76
6522.66
6519.51
6516.33
6513.12
6509.88
6506.62
6503.33
6500.01
6496.68
6493.34
6489.98
6486.61
6483.23
6479.85
6476.47
6473.09
6469.7
6466.32
6462.93
6459.54
6456.15
6452.76
6449.36
6445.95
6442.53
6439.1
6435.65
6432.17
6428.67
6425.14
6421.57
6417.97
6414.34
6410.66
6406.95
6403.19
6399.39
6395.54
6391.65
6387.72
6383.74
6379.72
6375.66
6371.56
6367.42
6363.24
6359.02
6354.77
6350.47
6346.14
6341.77
6337.36
6332.92
6328.43
6323.9
6319.33
6314.72
6310.05
6305.33
6300.55
6295.71
6290.79
6285.8
6280.72
6275.53
6270.24
6264.82
6259.26
6253.53
6247.62
6241.5
6235.12
6228.46
6221.45
6214.05
6206.22
6198.04
6189.69
6181.24
6172.61
6163.69
6154.42
6144.74
6134.59
6123.92
6112.7
6100.9
6088.49
6075.47
6061.82
6047.52
6032.54
6016.77
6000.11
5982.39
5963.43
5943.07
5921.28
5898.21
5874.2
5849.63
5824.81
5800.04
5775.59
5751.72
5728.65
5706.51
5685.35
5665.31
5646.56
5629.32
5613.81
5600.21
5588.61
5579.03
5571.46
5565.85
5562.14
5560.3
6630.23
6622.89
6615.57
6609.38
6604.18
6599.68
6595.67
6591.99
6588.57
6585.35
6582.27
6579.31
6576.43
6573.63
6570.88
6568.16
6565.46
6562.77
6560.08
6557.39
6554.67
6551.94
6549.17
6546.38
6543.55
6540.68
6537.77
6534.82
6531.83
6528.8
6525.73
6522.63
6519.48
6516.3
6513.09
6509.85
6506.58
6503.29
6499.97
6496.64
6493.29
6489.93
6486.56
6483.18
6479.8
6476.42
6473.03
6469.65
6466.26
6462.88
6459.49
6456.11
6452.71
6449.32
6445.91
6442.5
6439.07
6435.62
6432.14
6428.64
6425.12
6421.56
6417.96
6414.33
6410.65
6406.94
6403.18
6399.38
6395.53
6391.64
6387.71
6383.73
6379.71
6375.65
6371.55
6367.41
6363.23
6359.01
6354.75
6350.45
6346.12
6341.75
6337.34
6332.9
6328.41
6323.89
6319.32
6314.71
6310.04
6305.33
6300.55
6295.71
6290.8
6285.81
6280.73
6275.56
6270.27
6264.86
6259.3
6253.59
6247.68
6241.56
6235.19
6228.52
6221.49
6214.06
6206.23
6198.11
6189.87
6181.5
6172.93
6164.07
6154.85
6145.21
6135.1
6124.48
6113.29
6101.5
6089.11
6076.09
6062.47
6048.22
6033.31
6017.67
6001.18
5983.63
5964.82
5944.5
5922.56
5899.15
5874.77
5849.87
5824.77
5799.73
5775.01
5750.91
5727.73
5705.51
5684.25
5664.02
5645.04
5627.58
5611.91
5598.21
5586.58
5577.03
5569.51
5563.94
5560.28
5558.46
6618.94
6615.51
6610.95
6606.38
6602.1
6598.15
6594.48
6591.04
6587.79
6584.69
6581.71
6578.83
6576.02
6573.27
6570.57
6567.89
6565.23
6562.57
6559.91
6557.23
6554.54
6551.82
6549.07
6546.29
6543.47
6540.61
6537.71
6534.76
6531.77
6528.75
6525.68
6522.57
6519.42
6516.24
6513.02
6509.78
6506.51
6503.21
6499.89
6496.55
6493.2
6489.83
6486.46
6483.08
6479.69
6476.31
6472.92
6469.54
6466.15
6462.77
6459.39
6456.01
6452.62
6449.23
6445.83
6442.42
6439
6435.56
6432.09
6428.6
6425.08
6421.52
6417.93
6414.3
6410.63
6406.92
6403.16
6399.36
6395.52
6391.63
6387.69
6383.71
6379.69
6375.63
6371.53
6367.38
6363.2
6358.98
6354.72
6350.42
6346.09
6341.71
6337.31
6332.86
6328.38
6323.85
6319.29
6314.68
6310.02
6305.31
6300.54
6295.71
6290.81
6285.83
6280.76
6275.6
6270.32
6264.92
6259.38
6253.68
6247.79
6241.67
6235.3
6228.61
6221.56
6214.11
6206.32
6198.35
6190.27
6182.03
6173.57
6164.81
6155.69
6146.15
6136.14
6125.59
6114.46
6102.72
6090.34
6077.34
6063.74
6049.57
6034.82
6019.43
6003.28
5986.15
5967.71
5947.56
5925.32
5901.05
5875.86
5850.3
5824.66
5799.09
5773.81
5749.19
5725.85
5703.56
5682.1
5661.49
5641.99
5624.06
5608.03
5594.14
5582.48
5572.99
5565.59
5560.14
5556.57
5554.8
6611.08
6609.21
6606.28
6602.92
6599.49
6596.11
6592.84
6589.7
6586.67
6583.74
6580.9
6578.13
6575.42
6572.75
6570.12
6567.5
6564.89
6562.27
6559.65
6557.01
6554.35
6551.66
6548.93
6546.16
6543.36
6540.51
6537.61
6534.67
6531.69
6528.66
6525.59
6522.48
6519.33
6516.14
6512.92
6509.67
6506.39
6503.09
6499.76
6496.42
6493.06
6489.69
6486.3
6482.92
6479.53
6476.14
6472.75
6469.37
6465.99
6462.61
6459.23
6455.85
6452.48
6449.1
6445.71
6442.31
6438.9
6435.47
6432.01
6428.53
6425.02
6421.48
6417.89
6414.27
6410.61
6406.9
6403.14
6399.34
6395.5
6391.6
6387.67
6383.69
6379.66
6375.6
6371.49
6367.34
6363.15
6358.93
6354.67
6350.37
6346.03
6341.66
6337.25
6332.8
6328.32
6323.8
6319.24
6314.64
6309.98
6305.28
6300.52
6295.7
6290.81
6285.85
6280.8
6275.65
6270.39
6265.01
6259.49
6253.8
6247.92
6241.81
6235.43
6228.72
6221.65
6214.22
6206.56
6198.79
6190.9
6182.83
6174.51
6165.91
6156.94
6147.57
6137.7
6127.29
6116.26
6104.57
6092.19
6079.17
6065.58
6051.49
6036.96
6021.95
6006.37
5989.97
5972.33
5952.71
5930.1
5903.87
5877.32
5850.84
5824.47
5798.16
5771.93
5746.21
5722.9
5700.77
5679.12
5657.85
5637.38
5618.65
5602.01
5587.85
5576.2
5566.88
5559.7
5554.47
5551.05
5549.37
6605.03
6603.87
6601.86
6599.35
6596.59
6593.74
6590.88
6588.05
6585.27
6582.54
6579.87
6577.24
6574.65
6572.08
6569.53
6566.99
6564.45
6561.89
6559.32
6556.73
6554.1
6551.44
6548.74
6546
6543.21
6540.37
6537.49
6534.56
6531.57
6528.55
6525.48
6522.36
6519.21
6516.02
6512.79
6509.53
6506.25
6502.93
6499.6
6496.24
6492.87
6489.49
6486.1
6482.71
6479.31
6475.92
6472.53
6469.14
6465.76
6462.39
6459.02
6455.65
6452.28
6448.92
6445.54
6442.16
6438.76
6435.35
6431.91
6428.44
6424.95
6421.41
6417.84
6414.23
6410.57
6406.87
6403.11
6399.31
6395.47
6391.57
6387.63
6383.65
6379.62
6375.55
6371.44
6367.29
6363.1
6358.87
6354.6
6350.29
6345.95
6341.58
6337.17
6332.73
6328.25
6323.73
6319.17
6314.57
6309.93
6305.24
6300.49
6295.69
6290.82
6285.87
6280.84
6275.71
6270.48
6265.12
6259.62
6253.95
6248.08
6241.97
6235.58
6228.85
6221.77
6214.44
6206.99
6199.44
6191.75
6183.87
6175.76
6167.36
6158.62
6149.47
6139.82
6129.61
6118.72
6107.1
6094.7
6081.58
6067.91
6053.87
6039.57
6025.05
6010.27
5995.04
5978.91
5960.85
5938.49
5907.03
5878.7
5851.25
5824.23
5797.15
5769.57
5740.8
5718.79
5697.5
5675.75
5653.42
5631.01
5611.14
5593.52
5579.05
5567.57
5558.64
5551.87
5546.98
5543.81
5542.25
6600.01
6599.21
6597.74
6595.81
6593.58
6591.17
6588.69
6586.17
6583.65
6581.14
6578.65
6576.18
6573.72
6571.27
6568.83
6566.38
6563.92
6561.43
6558.92
6556.38
6553.81
6551.19
6548.52
6545.8
6543.03
6540.21
6537.34
6534.42
6531.44
6528.41
6525.34
6522.22
6519.06
6515.87
6512.63
6509.36
6506.06
6502.74
6499.39
6496.02
6492.64
6489.24
6485.84
6482.44
6479.03
6475.63
6472.24
6468.85
6465.48
6462.11
6458.75
6455.39
6452.04
6448.69
6445.33
6441.97
6438.59
6435.2
6431.78
6428.33
6424.86
6421.34
6417.78
6414.18
6410.53
6406.83
6403.08
6399.28
6395.43
6391.54
6387.6
6383.61
6379.57
6375.5
6371.38
6367.22
6363.02
6358.78
6354.51
6350.2
6345.86
6341.48
6337.07
6332.62
6328.14
6323.63
6319.08
6314.49
6309.86
6305.18
6300.45
6295.66
6290.81
6285.88
6280.88
6275.77
6270.56
6265.23
6259.75
6254.1
6248.24
6242.13
6235.72
6228.98
6221.96
6214.82
6207.6
6200.27
6192.81
6185.16
6177.3
6169.16
6160.71
6151.85
6142.52
6132.59
6121.93
6110.41
6097.92
6084.53
6070.63
6056.51
6042.4
6028.41
6014.61
6001
5987.43
5973.28
5956
5937.16
5887.89
5850.97
5822.36
5791.48
5756.99
5728.62
5713.96
5694.7
5672.96
5649.06
5622.12
5601.38
5581.88
5567.26
5556.4
5548.23
5542.14
5537.78
5534.96
5533.57
6595.59
6594.99
6593.87
6592.35
6590.52
6588.49
6586.35
6584.12
6581.86
6579.57
6577.28
6574.98
6572.67
6570.35
6568.02
6565.68
6563.31
6560.91
6558.47
6555.99
6553.47
6550.89
6548.27
6545.58
6542.84
6540.04
6537.18
6534.26
6531.28
6528.26
6525.18
6522.06
6518.89
6515.69
6512.44
6509.16
6505.85
6502.51
6499.14
6495.75
6492.35
6488.94
6485.53
6482.11
6478.7
6475.29
6471.89
6468.5
6465.13
6461.77
6458.42
6455.08
6451.74
6448.41
6445.08
6441.74
6438.39
6435.02
6431.63
6428.21
6424.75
6421.25
6417.71
6414.12
6410.48
6406.79
6403.05
6399.25
6395.4
6391.5
6387.55
6383.55
6379.51
6375.43
6371.3
6367.14
6362.93
6358.69
6354.4
6350.09
6345.74
6341.36
6336.94
6332.49
6328.02
6323.51
6318.96
6314.38
6309.76
6305.1
6300.39
6295.62
6290.79
6285.89
6280.9
6275.83
6270.65
6265.34
6259.88
6254.24
6248.38
6242.26
6235.83
6229.13
6222.27
6215.35
6208.37
6201.28
6194.06
6186.68
6179.1
6171.29
6163.19
6154.72
6145.81
6136.3
6126.01
6114.68
6102.02
6088.02
6073.54
6059.15
6045.11
6031.59
6018.77
6006.92
5996.53
5988.84
5976.59
5978.34
5920.51
5857.36
5808.33
5773.9
5748.47
5726.43
5710.94
5690.98
5665.77
5634.61
5607.02
5590.39
5565.34
5551.71
5542.53
5535.76
5530.69
5527.05
5524.67
5523.5
6591.55
6591.08
6590.2
6588.97
6587.46
6585.76
6583.9
6581.95
6579.94
6577.87
6575.78
6573.65
6571.51
6569.33
6567.13
6564.9
6562.63
6560.32
6557.97
6555.56
6553.1
6550.58
6547.99
6545.34
6542.63
6539.85
6537
6534.09
6531.11
6528.09
6525.01
6521.88
6518.7
6515.48
6512.22
6508.93
6505.6
6502.24
6498.85
6495.45
6492.02
6488.59
6485.16
6481.73
6478.3
6474.88
6471.48
6468.09
6464.72
6461.36
6458.02
6454.7
6451.39
6448.08
6444.78
6441.47
6438.15
6434.81
6431.45
6428.06
6424.63
6421.16
6417.64
6414.07
6410.44
6406.76
6403.01
6399.22
6395.36
6391.45
6387.5
6383.49
6379.44
6375.35
6371.21
6367.04
6362.82
6358.57
6354.28
6349.95
6345.59
6341.2
6336.78
6332.33
6327.86
6323.35
6318.81
6314.24
6309.64
6304.99
6300.3
6295.55
6290.75
6285.87
6280.92
6275.87
6270.72
6265.43
6259.99
6254.36
6248.5
6242.35
6235.94
6229.35
6222.7
6216.02
6209.27
6202.43
6195.48
6188.39
6181.14
6173.7
6166.03
6158.05
6149.68
6140.79
6131.12
6120.27
6107.49
6091.96
6076.39
6061.44
6047.29
6034.06
6021.96
6011.36
6002.95
5997.87
5991.44
5984.99
5933.49
5855.9
5797.19
5756.93
5725.84
5701.32
5682.07
5661.53
5646.46
5620.91
5594.35
5560.71
5537.39
5531.73
5526.23
5521.57
5517.83
5515.04
5513.18
5512.26
6587.76
6587.39
6586.68
6585.68
6584.43
6582.99
6581.4
6579.7
6577.92
6576.08
6574.18
6572.24
6570.25
6568.23
6566.17
6564.06
6561.9
6559.7
6557.43
6555.1
6552.71
6550.25
6547.71
6545.1
6542.41
6539.65
6536.81
6533.9
6530.93
6527.9
6524.81
6521.67
6518.49
6515.26
6511.98
6508.67
6505.32
6501.94
6498.53
6495.09
6491.65
6488.19
6484.73
6481.28
6477.83
6474.4
6470.99
6467.6
6464.23
6460.88
6457.56
6454.26
6450.97
6447.7
6444.43
6441.16
6437.88
6434.58
6431.26
6427.9
6424.51
6421.07
6417.57
6414.02
6410.4
6406.73
6402.99
6399.18
6395.32
6391.41
6387.44
6383.43
6379.36
6375.26
6371.11
6366.93
6362.7
6358.43
6354.13
6349.79
6345.42
6341.02
6336.6
6332.14
6327.66
6323.16
6318.63
6314.07
6309.48
6304.85
6300.18
6295.46
6290.68
6285.83
6280.91
6275.89
6270.76
6265.5
6260.07
6254.43
6248.55
6242.41
6236.07
6229.66
6223.24
6216.79
6210.28
6203.7
6197.03
6190.26
6183.38
6176.36
6169.17
6161.77
6154.09
6146.04
6137.43
6127.79
6115.7
6095.95
6078.61
6062.91
6048.55
6035.42
6023.65
6013.63
6006.02
6002.39
5998.52
5989.09
5923.63
5835.54
5767.61
5715.39
5675.45
5646.46
5626.3
5611.4
5604.17
5579.67
5540
5511.73
5513.07
5511.59
5509.11
5506.44
5504.03
5502.1
5500.76
5500.08
6584.14
6583.84
6583.27
6582.45
6581.42
6580.21
6578.86
6577.39
6575.83
6574.2
6572.5
6570.74
6568.93
6567.07
6565.15
6563.17
6561.14
6559.04
6556.87
6554.63
6552.31
6549.91
6547.43
6544.86
6542.2
6539.45
6536.63
6533.72
6530.74
6527.7
6524.6
6521.45
6518.26
6515.01
6511.72
6508.39
6505.01
6501.6
6498.16
6494.7
6491.22
6487.73
6484.25
6480.77
6477.3
6473.85
6470.43
6467.03
6463.67
6460.33
6457.03
6453.75
6450.49
6447.26
6444.03
6440.8
6437.57
6434.32
6431.04
6427.73
6424.38
6420.97
6417.51
6413.98
6410.38
6406.71
6402.97
6399.16
6395.29
6391.36
6387.38
6383.35
6379.28
6375.16
6371
6366.8
6362.56
6358.28
6353.96
6349.61
6345.22
6340.81
6336.37
6331.91
6327.43
6322.93
6318.41
6313.86
6309.29
6304.68
6300.03
6295.34
6290.58
6285.77
6280.87
6275.88
6270.77
6265.52
6260.09
6254.44
6248.54
6242.44
6236.25
6230.07
6223.87
6217.65
6211.38
6205.06
6198.68
6192.25
6185.75
6179.18
6172.52
6165.75
6158.87
6151.87
6144.77
6137.74
6131.6
6113.19
6086.85
6065.89
6049.03
6035.31
6022.85
6011.89
6005.11
6003.62
6001.24
5964.1
5878.28
5795.02
5722.34
5661.56
5614.11
5582.78
5565.28
5553.61
5541.13
5515.45
5484.7
5481.75
5490.32
5492.44
5492.19
5491.07
5489.74
5488.55
5487.69
5487.24
6580.63
6580.4
6579.94
6579.27
6578.42
6577.42
6576.28
6575.04
6573.69
6572.27
6570.77
6569.2
6567.56
6565.86
6564.09
6562.26
6560.35
6558.36
6556.3
6554.15
6551.92
6549.59
6547.16
6544.63
6542
6539.27
6536.45
6533.54
6530.55
6527.5
6524.39
6521.22
6518.01
6514.75
6511.44
6508.08
6504.68
6501.24
6497.76
6494.26
6490.74
6487.22
6483.7
6480.18
6476.69
6473.22
6469.78
6466.38
6463.02
6459.69
6456.41
6453.16
6449.95
6446.75
6443.58
6440.4
6437.23
6434.03
6430.81
6427.55
6424.25
6420.89
6417.46
6413.95
6410.37
6406.71
6402.97
6399.15
6395.26
6391.32
6387.32
6383.27
6379.18
6375.05
6370.87
6366.66
6362.4
6358.1
6353.77
6349.4
6344.99
6340.56
6336.11
6331.64
6327.16
6322.66
6318.14
6313.61
6309.05
6304.46
6299.84
6295.17
6290.45
6285.66
6280.79
6275.82
6270.73
6265.48
6260.04
6254.37
6248.48
6242.5
6236.52
6230.54
6224.56
6218.55
6212.52
6206.47
6200.4
6194.31
6188.2
6182.09
6175.97
6169.86
6163.78
6157.79
6152.02
6146.82
6143.02
6135.3
6109.28
6079.22
6052.26
6031.21
6017.48
6010.06
6005.05
6002.64
5999.69
5929.24
5830.38
5743.92
5665.17
5594.39
5536.65
5505.26
5498.41
5496.62
5491.3
5476.28
5466.22
5471.08
5474
5475.68
5476.14
5475.89
5475.31
5474.69
5474.2
5473.93
6577.2
6577.02
6576.65
6576.12
6575.44
6574.62
6573.69
6572.65
6571.51
6570.29
6568.99
6567.61
6566.16
6564.62
6563.01
6561.32
6559.55
6557.69
6555.73
6553.69
6551.54
6549.28
6546.91
6544.43
6541.83
6539.12
6536.3
6533.37
6530.37
6527.29
6524.16
6520.97
6517.75
6514.47
6511.15
6507.77
6504.34
6500.86
6497.33
6493.78
6490.22
6486.64
6483.08
6479.53
6476
6472.51
6469.05
6465.64
6462.27
6458.96
6455.7
6452.49
6449.32
6446.18
6443.06
6439.96
6436.85
6433.72
6430.57
6427.37
6424.12
6420.81
6417.43
6413.96
6410.4
6406.74
6402.99
6399.16
6395.24
6391.27
6387.25
6383.18
6379.07
6374.92
6370.74
6366.51
6362.23
6357.91
6353.55
6349.16
6344.73
6340.28
6335.8
6331.32
6326.83
6322.33
6317.82
6313.3
6308.77
6304.2
6299.61
6294.97
6290.27
6285.51
6280.66
6275.71
6270.62
6265.36
6259.89
6254.21
6248.42
6242.61
6236.83
6231.06
6225.27
6219.48
6213.69
6207.9
6202.13
6196.38
6190.66
6185
6179.41
6173.93
6168.6
6163.5
6158.72
6154.48
6151.25
6148.15
6119.36
6080.47
6052.72
6027.59
6008.7
5993.68
5979.71
5963.25
5933.69
5854.98
5770.07
5685.11
5600.03
5514.18
5432.83
5403.21
5426.5
5443.16
5451.15
5449.06
5451.21
5457.53
5458.91
5460.13
5460.82
5461.02
5460.93
5460.71
5460.49
5460.36
6573.8
6573.66
6573.38
6572.98
6572.45
6571.81
6571.07
6570.23
6569.31
6568.29
6567.19
6566
6564.73
6563.37
6561.92
6560.38
6558.75
6557.02
6555.19
6553.25
6551.19
6549.02
6546.71
6544.28
6541.71
6539.01
6536.17
6533.23
6530.18
6527.07
6523.91
6520.71
6517.47
6514.19
6510.85
6507.45
6503.98
6500.45
6496.88
6493.27
6489.64
6486.01
6482.39
6478.8
6475.23
6471.7
6468.22
6464.79
6461.43
6458.13
6454.9
6451.73
6448.61
6445.54
6442.49
6439.46
6436.43
6433.38
6430.31
6427.19
6424.01
6420.76
6417.43
6414
6410.46
6406.81
6403.05
6399.18
6395.24
6391.22
6387.17
6383.07
6378.95
6374.79
6370.59
6366.34
6362.05
6357.71
6353.32
6348.89
6344.43
6339.95
6335.45
6330.94
6326.44
6321.94
6317.44
6312.94
6308.42
6303.89
6299.32
6294.71
6290.04
6285.3
6280.47
6275.53
6270.43
6265.14
6259.65
6254.03
6248.39
6242.78
6237.19
6231.59
6226
6220.42
6214.85
6209.32
6203.83
6198.41
6193.07
6187.84
6182.75
6177.85
6173.2
6168.87
6164.89
6161.13
6156.49
6155.34
6131.56
6087.55
6050.56
6017.74
5988.53
5961.05
5932.53
5898.9
5853.32
5786.9
5709.82
5626.41
5535.67
5429.48
5341.83
5324.27
5361.23
5398.37
5421.76
5431.67
5437.26
5442.85
5443.98
5445.13
5445.97
5446.46
5446.67
5446.72
5446.69
5446.66
6570.4
6570.3
6570.11
6569.82
6569.44
6568.98
6568.43
6567.8
6567.07
6566.27
6565.37
6564.38
6563.29
6562.11
6560.83
6559.45
6557.97
6556.37
6554.67
6552.84
6550.89
6548.81
6546.58
6544.2
6541.66
6538.96
6536.1
6533.11
6530.01
6526.84
6523.64
6520.42
6517.18
6513.9
6510.55
6507.13
6503.63
6500.04
6496.4
6492.71
6489
6485.3
6481.63
6477.98
6474.36
6470.8
6467.28
6463.83
6460.46
6457.17
6453.98
6450.86
6447.81
6444.81
6441.85
6438.91
6435.98
6433.03
6430.04
6427.01
6423.92
6420.75
6417.48
6414.1
6410.59
6406.94
6403.16
6399.25
6395.24
6391.17
6387.07
6382.95
6378.8
6374.64
6370.43
6366.17
6361.86
6357.49
6353.07
6348.6
6344.1
6339.57
6335.03
6330.5
6325.98
6321.48
6316.99
6312.51
6308.01
6303.51
6298.97
6294.38
6289.74
6285.02
6280.2
6275.24
6270.12
6264.8
6259.35
6253.87
6248.41
6242.98
6237.55
6232.13
6226.72
6221.33
6215.99
6210.69
6205.48
6200.36
6195.36
6190.53
6185.9
6181.53
6177.49
6173.88
6170.84
6168.65
6163.89
6161.22
6135.47
6087.62
6044.22
6004.28
5966.62
5929.47
5890.46
5846.49
5793.79
5729.47
5655.91
5575.03
5486.74
5388.44
5326.25
5318.32
5331.37
5367.31
5399.69
5416.37
5419.63
5427.42
5429.02
5430.43
5431.47
5432.16
5432.58
5432.8
5432.9
5432.94
6566.96
6566.9
6566.79
6566.62
6566.4
6566.11
6565.76
6565.33
6564.83
6564.23
6563.54
6562.75
6561.86
6560.87
6559.76
6558.54
6557.21
6555.76
6554.19
6552.49
6550.65
6548.67
6546.52
6544.2
6541.7
6539
6536.1
6533.03
6529.83
6526.58
6523.34
6520.1
6516.87
6513.61
6510.27
6506.84
6503.3
6499.64
6495.9
6492.11
6488.31
6484.52
6480.78
6477.07
6473.4
6469.78
6466.22
6462.74
6459.35
6456.08
6452.92
6449.87
6446.9
6444
6441.14
6438.31
6435.49
6432.65
6429.77
6426.85
6423.86
6420.78
6417.59
6414.28
6410.8
6407.16
6403.33
6399.35
6395.25
6391.1
6386.94
6382.78
6378.63
6374.47
6370.27
6366
6361.67
6357.27
6352.81
6348.29
6343.72
6339.13
6334.54
6329.97
6325.44
6320.93
6316.46
6312
6307.53
6303.06
6298.55
6293.99
6289.37
6284.66
6279.82
6274.84
6269.68
6264.38
6259.05
6253.75
6248.46
6243.18
6237.91
6232.65
6227.41
6222.21
6217.07
6211.99
6207.02
6202.18
6197.5
6193.02
6188.79
6184.87
6181.34
6178.31
6175.93
6174.44
6171.5
6166.59
6136.46
6083.22
6034.42
5988.54
5944.19
5899.75
5853.35
5802.79
5745.9
5681.27
5609.33
5531.07
5447.83
5363.09
5316.67
5312.07
5310.22
5339.82
5381.46
5403
5404.16
5411.08
5414.24
5416.1
5417.33
5418.15
5418.68
5418.99
5419.17
5419.25
6563.45
6563.44
6563.41
6563.37
6563.3
6563.2
6563.05
6562.85
6562.56
6562.19
6561.72
6561.14
6560.45
6559.65
6558.72
6557.67
6556.5
6555.2
6553.77
6552.21
6550.49
6548.62
6546.57
6544.33
6541.87
6539.17
6536.22
6533.01
6529.65
6526.26
6522.96
6519.72
6516.53
6513.32
6510.04
6506.61
6503.02
6499.27
6495.41
6491.48
6487.54
6483.65
6479.83
6476.07
6472.34
6468.66
6465.03
6461.49
6458.08
6454.82
6451.71
6448.74
6445.87
6443.09
6440.36
6437.66
6434.96
6432.25
6429.5
6426.7
6423.83
6420.87
6417.79
6414.56
6411.14
6407.5
6403.62
6399.51
6395.27
6390.99
6386.75
6382.56
6378.42
6374.28
6370.1
6365.84
6361.5
6357.06
6352.54
6347.95
6343.31
6338.64
6333.97
6329.35
6324.78
6320.28
6315.82
6311.4
6306.97
6302.53
6298.05
6293.52
6288.9
6284.17
6279.31
6274.29
6269.15
6263.97
6258.81
6253.67
6248.53
6243.39
6238.26
6233.15
6228.07
6223.04
6218.07
6213.2
6208.44
6203.84
6199.43
6195.25
6191.37
6187.83
6184.71
6182.1
6180.14
6178.99
6177.17
6169.95
6131.85
6074.4
6021.69
5971.29
5921.83
5872.01
5820.38
5765.44
5705.76
5640.37
5569.07
5492.08
5410.44
5335.33
5306.07
5305.73
5304.66
5326.59
5367.4
5389.68
5395.87
5398.51
5400.76
5402.41
5403.6
5404.43
5404.98
5405.34
5405.54
5405.63
6559.84
6559.87
6559.93
6560.02
6560.12
6560.22
6560.3
6560.33
6560.29
6560.16
6559.92
6559.56
6559.08
6558.46
6557.72
6556.84
6555.84
6554.7
6553.42
6552
6550.43
6548.68
6546.75
6544.6
6542.21
6539.53
6536.53
6533.06
6529.44
6525.8
6522.44
6519.24
6516.14
6513.06
6509.89
6506.5
6502.83
6498.95
6494.93
6490.8
6486.66
6482.65
6478.78
6474.98
6471.19
6467.42
6463.69
6460.06
6456.61
6453.37
6450.32
6447.45
6444.71
6442.07
6439.49
6436.95
6434.4
6431.84
6429.24
6426.58
6423.85
6421.02
6418.07
6414.97
6411.64
6408.03
6404.07
6399.75
6395.26
6390.77
6386.44
6382.24
6378.15
6374.08
6369.96
6365.72
6361.35
6356.87
6352.28
6347.61
6342.86
6338.07
6333.29
6328.59
6323.99
6319.5
6315.08
6310.7
6306.32
6301.92
6297.47
6292.94
6288.31
6283.55
6278.65
6273.65
6268.63
6263.61
6258.61
6253.6
6248.59
6243.58
6238.59
6233.62
6228.69
6223.8
6218.99
6214.28
6209.7
6205.3
6201.12
6197.21
6193.6
6190.36
6187.55
6185.24
6183.53
6182.53
6181.46
6162.26
6114.66
6060.82
6006.66
5953.11
5899.84
5846.05
5790.74
5732.83
5671.31
5605.39
5534.49
5457.74
5372.59
5311.28
5300.9
5300.38
5301
5315.73
5353.28
5377.71
5384.97
5386.32
5387.86
5389.2
5390.23
5390.98
5391.5
5391.83
5392.02
5392.11
6556.07
6556.16
6556.32
6556.55
6556.84
6557.17
6557.5
6557.8
6558.02
6558.15
6558.15
6558.02
6557.75
6557.33
6556.77
6556.07
6555.24
6554.26
6553.15
6551.88
6550.46
6548.87
6547.07
6545.04
6542.77
6540.14
6537.23
6533.21
6529.2
6524.98
6521.72
6518.59
6515.68
6512.84
6509.89
6506.61
6502.79
6498.73
6494.49
6490.07
6485.58
6481.47
6477.61
6473.81
6469.97
6466.09
6462.19
6458.41
6454.88
6451.66
6448.7
6445.97
6443.4
6440.94
6438.55
6436.18
6433.81
6431.41
6428.97
6426.47
6423.9
6421.24
6418.47
6415.54
6412.38
6408.86
6404.81
6400.09
6395.2
6390.34
6385.93
6381.76
6377.79
6373.88
6369.87
6365.65
6361.24
6356.71
6352.05
6347.28
6342.39
6337.42
6332.45
6327.65
6323.02
6318.56
6314.2
6309.89
6305.57
6301.21
6296.77
6292.23
6287.56
6282.77
6277.91
6273.04
6268.17
6263.3
6258.42
6253.53
6248.65
6243.77
6238.9
6234.06
6229.25
6224.49
6219.8
6215.22
6210.79
6206.55
6202.55
6198.84
6195.47
6192.47
6189.9
6187.8
6186.2
6185.15
6184.26
6157.79
6103.71
6047.57
5991.01
5934.65
5878.36
5821.62
5763.71
5703.83
5641.26
5575.4
5505.77
5431.79
5352.12
5303.63
5297.69
5297.11
5298.32
5312.84
5345.2
5365.71
5372.85
5373.93
5375.18
5376.28
5377.15
5377.77
5378.19
5378.45
5378.61
5378.67
6552.12
6552.26
6552.52
6552.92
6553.42
6554.01
6554.63
6555.24
6555.76
6556.17
6556.43
6556.54
6556.48
6556.26
6555.89
6555.37
6554.7
6553.9
6552.95
6551.85
6550.61
6549.19
6547.55
6545.65
6543.6
6540.95
6538.97
6534.57
6527.95
6523.14
6520.8
6517.66
6515.09
6512.68
6510.17
6507.19
6502.95
6498.64
6494.17
6489.36
6484.05
6479.98
6476.3
6472.61
6468.75
6464.71
6460.54
6456.44
6452.8
6449.62
6446.82
6444.28
6441.93
6439.7
6437.52
6435.37
6433.2
6430.98
6428.72
6426.39
6423.99
6421.52
6418.97
6416.29
6413.4
6410.13
6406.13
6400.51
6395.02
6389.39
6385.09
6381
6377.28
6373.69
6369.94
6365.68
6361.21
6356.6
6351.87
6346.98
6341.93
6336.68
6331.35
6326.45
6321.8
6317.4
6313.16
6308.96
6304.72
6300.39
6295.95
6291.38
6286.7
6281.97
6277.23
6272.49
6267.75
6262.99
6258.23
6253.47
6248.7
6243.94
6239.19
6234.47
6229.77
6225.11
6220.51
6216.01
6211.68
6207.55
6203.7
6200.15
6196.96
6194.15
6191.77
6189.85
6188.32
6186.78
6185.94
6155.15
6094.8
6034.73
5975.16
5916.11
5857.34
5798.37
5738.63
5677.52
5614.5
5549.17
5481.41
5411.51
5340.32
5300.7
5296.48
5296.63
5297.7
5301.73
5328.63
5351.89
5359.98
5361.38
5362.63
5363.61
5364.3
5364.76
5365.04
5365.2
5365.28
5365.31
6547.93
6548.12
6548.5
6549.07
6549.82
6550.72
6551.7
6552.66
6553.54
6554.25
6554.79
6555.14
6555.3
6555.28
6555.09
6554.74
6554.24
6553.61
6552.83
6551.91
6550.85
6549.65
6548.21
6546.33
6544.97
6542.91
6539.68
6532.99
6526.32
6522.08
6518.89
6516.09
6514.29
6512.56
6510.85
6508.98
6505.7
6499.47
6492.47
6486.17
6481.21
6478.03
6474.94
6471.51
6467.66
6463.39
6458.74
6453.96
6450.19
6447.16
6444.61
6442.36
6440.29
6438.34
6436.43
6434.52
6432.57
6430.56
6428.47
6426.31
6424.1
6421.84
6419.54
6417.19
6414.74
6412.03
6408.96
6402.85
6393.63
6387.02
6383.94
6379.8
6376.55
6373.59
6370.41
6365.85
6361.22
6356.54
6351.75
6346.78
6341.55
6335.92
6329.71
6324.89
6320.2
6315.98
6311.94
6307.9
6303.76
6299.48
6295.06
6290.52
6285.89
6281.24
6276.59
6271.97
6267.34
6262.71
6258.06
6253.4
6248.74
6244.09
6239.46
6234.84
6230.24
6225.66
6221.11
6216.65
6212.35
6208.29
6204.53
6201.11
6198.05
6195.4
6193.2
6191.52
6190.45
6188.71
6186.9
6151.95
6085.63
6021.4
5958.78
5897.31
5836.51
5775.89
5714.93
5653.12
5590.04
5525.38
5459.19
5392.52
5329.95
5299.27
5296.17
5296.23
5296.89
5299.53
5321.49
5340.59
5346.4
5348.96
5350.37
5351.21
5351.69
5351.93
5352.01
5352.02
5351.99
5351.97
6543.44
6543.68
6544.18
6544.94
6545.98
6547.26
6548.68
6550.1
6551.38
6552.44
6553.26
6553.85
6554.22
6554.39
6554.37
6554.19
6553.86
6553.39
6552.78
6552.05
6551.17
6550.25
6549.22
6547.76
6545.61
6539.71
6533.57
6527.14
6522.5
6519.04
6516.72
6514.89
6513.39
6512.35
6511.63
6510.37
6505.47
6497.35
6489.45
6482.79
6478.86
6475.93
6473.87
6470.78
6466.94
6462.39
6457.01
6450.42
6446.77
6444.16
6442.04
6440.19
6438.5
6436.89
6435.29
6433.66
6431.96
6430.16
6428.25
6426.25
6424.2
6422.13
6420.09
6418.13
6416.24
6414.17
6411.74
6401.57
6390.02
6384.06
6381.05
6377.63
6375.43
6373.62
6372.13
6368.59
6361.65
6355.42
6352.25
6346.34
6338.13
6331.36
6326.54
6323.09
6318.01
6314.25
6310.61
6306.83
6302.84
6298.66
6294.31
6289.8
6285.17
6280.52
6275.96
6271.45
6266.95
6262.43
6257.89
6253.34
6248.78
6244.23
6239.71
6235.2
6230.71
6226.18
6221.62
6217.12
6212.79
6208.72
6205.03
6201.71
6198.75
6196.19
6194.1
6192.56
6191.67
6190.41
6187.3
6146.59
6074.39
6006.44
5941.25
5877.83
5815.51
5753.75
5692.06
5630.01
5567.16
5503.12
5437.44
5369.43
5314.83
5296.79
5295.77
5295.81
5295.83
5297.71
5317.21
5333.94
5336.08
5337.71
5338.69
5339.17
5339.31
5339.24
5339.07
5338.87
5338.71
5338.61
6538.61
6538.9
6539.5
6540.45
6541.81
6543.56
6545.59
6547.59
6549.35
6550.78
6551.89
6552.71
6553.28
6553.62
6553.76
6553.73
6553.55
6553.24
6552.81
6552.24
6551.46
6550.87
6549.69
6543.59
6537.04
6528.98
6523
6518.21
6514.89
6513.02
6512.82
6513.56
6512.48
6511.8
6511.66
6510.49
6503.84
6493.19
6484.1
6476.78
6471.66
6471
6471.39
6469.68
6465.22
6458.22
6450.15
6443.86
6442.24
6440.61
6439.15
6437.82
6436.58
6435.36
6434.13
6432.82
6431.39
6429.81
6428.06
6426.19
6424.26
6422.33
6420.5
6418.92
6417.81
6416.23
6409.1
6394.23
6382.1
6374.89
6371.57
6371.89
6373.85
6373.25
6372.44
6368
6358.95
6349.24
6343.84
6339.46
6333.36
6328.05
6322.5
6318.01
6314.47
6312.35
6309.39
6305.94
6302.14
6298.06
6293.74
6289.21
6284.5
6279.72
6275.26
6270.92
6266.57
6262.18
6257.74
6253.27
6248.81
6244.35
6239.94
6235.56
6231.19
6226.75
6222.05
6217.44
6212.98
6208.77
6205.15
6201.94
6199.05
6196.51
6194.45
6192.95
6192.11
6190.99
6186.42
6135.66
6058.89
5988.73
5921.94
5857.25
5793.95
5731.54
5669.57
5607.68
5545.47
5482.5
5418.04
5350.63
5305.15
5295.81
5295.31
5295.42
5295.57
5296.63
5310.95
5325.29
5326.25
5327.1
5327.5
5327.48
5327.15
5326.67
5326.15
5325.69
5325.35
5325.17
6533.4
6533.71
6534.37
6535.47
6537.14
6539.49
6542.44
6545.25
6547.56
6549.36
6550.74
6551.76
6552.49
6552.97
6553.25
6553.36
6553.32
6553.15
6552.89
6552.55
6551.91
6549.89
6541.91
6530.73
6522.77
6516.16
6511.24
6507.8
6505.84
6505.33
6506.47
6509.64
6511.1
6511.27
6510.15
6508.68
6500.22
6487.46
6476.99
6467.68
6462.26
6465.2
6466.41
6463.13
6453.79
6444.14
6440.59
6438.32
6437.66
6436.86
6436.07
6435.31
6434.57
6433.82
6433
6432.06
6430.93
6429.58
6427.94
6426.14
6424.27
6422.38
6420.58
6419.14
6418.22
6416.89
6405.22
6385.02
6368.63
6356.77
6349.48
6348.97
6358.31
6366.91
6367.89
6359.63
6346.78
6336
6331.58
6329.21
6325.15
6321.84
6317.89
6314.67
6312.91
6311.3
6308.69
6305.45
6301.76
6297.72
6293.4
6288.81
6283.9
6278.59
6274.46
6270.4
6266.24
6261.96
6257.61
6253.22
6248.81
6244.44
6240.12
6235.89
6231.76
6227.58
6222.41
6217.59
6212.91
6208.22
6204.87
6201.86
6199
6196.36
6194.25
6192.67
6191.8
6190.8
6168.82
6106.51
6036.77
5967.67
5900.53
5835.27
5771.51
5708.87
5647.01
5585.66
5524.55
5463.37
5401.59
5338.25
5299.95
5294.53
5294.72
5295
5295.37
5297.23
5305.1
5315.69
5316.54
5316.93
5316.73
5316.08
5315.15
5314.13
5313.17
5312.38
5311.82
5311.54
6527.8
6528.08
6528.7
6529.81
6531.69
6534.75
6539.34
6543.33
6546.19
6548.29
6549.86
6551.03
6551.87
6552.47
6552.85
6553.06
6553.14
6553.09
6552.98
6552.08
6545.12
6536.56
6524.76
6514.66
6507.14
6501.67
6497.99
6495.9
6495.34
6495.98
6498.08
6502.6
6507.78
6505.31
6505.3
6505.25
6493.54
6479.45
6468.72
6459.91
6456.39
6460.7
6462.28
6453.79
6440.82
6432.18
6433.06
6433.21
6433.16
6433.05
6432.9
6432.73
6432.53
6432.29
6431.94
6431.43
6430.65
6429.57
6427.91
6426.11
6424.22
6422.26
6420.21
6418.74
6417.62
6415.37
6398.88
6372
6350.62
6334.08
6321.11
6315.17
6320.16
6325.58
6342.43
6343.72
6334.46
6328.96
6326.59
6323.82
6320.83
6319.01
6316.61
6314.4
6312.98
6310.4
6307.67
6304.7
6300.72
6296.54
6292.54
6287.76
6281.49
6276.29
6273.57
6269.99
6266.01
6261.83
6257.53
6253.17
6248.79
6244.47
6240.23
6236.13
6232.38
6229.39
6222.4
6217.83
6211.42
6206.32
6204.26
6201.62
6198.74
6195.66
6193.51
6191.7
6190.69
6189.23
6154.77
6084.81
6014.03
5944.62
5877.24
5811.8
5747.96
5685.42
5623.95
5563.39
5503.7
5444.85
5386.68
5328.6
5296.17
5293.26
5293.86
5294.48
5295.38
5297.12
5300.14
5305.62
5307.3
5307.33
5306.43
5304.97
5303.24
5301.53
5300.02
5298.84
5298.03
5297.63
6521.81
6522.01
6522.45
6523.31
6524.94
6528.36
6536.73
6542.45
6545.52
6547.68
6549.32
6550.56
6551.44
6552.1
6552.55
6552.82
6553.01
6553.04
6546.8
6539.17
6527.38
6516.86
6505.91
6496.02
6489.46
6485.41
6483.14
6482.5
6483.62
6485.19
6487.27
6490.1
6493.88
6490.91
6491.78
6490.77
6479.13
6468.09
6458.51
6450.3
6446.79
6448.61
6448.57
6441.44
6431.94
6426.32
6426.22
6428.12
6428.67
6429.22
6429.71
6430.13
6430.49
6430.8
6431.01
6431.02
6430.59
6430.04
6428.32
6425.82
6423.45
6421.11
6419.17
6417.86
6415.89
6410.24
6387.35
6353.47
6327.78
6307.81
6291.39
6283.76
6283.61
6277.47
6306.68
6334.79
6329.33
6326.72
6326.53
6323.55
6320.32
6318.1
6316.39
6315.05
6303.78
6294.22
6288.87
6284.48
6280.17
6276.05
6272
6267.52
6262.54
6258.27
6255.16
6252.01
6248.89