/*--------------------------------*- C++ -*----------------------------------*\
| =========                 |                                                 |
| \\      /  F ield         | OpenFOAM: The Open Source CFD Toolbox           |
|  \\    /   O peration     | Version:  2.1.0                                 |
|   \\  /    A nd           | Web:      www.OpenFOAM.org                      |
|    \\/     M anipulation  |                                                 |
\*---------------------------------------------------------------------------*/
FoamFile
{
    version     2.0;
    format      ascii;
    class       volScalarField;
    location    "24090";
    object      so;
}
// * * * * * * * * * * * * * * * * * * * * * * * * * * * * * * * * * * * * * //

dimensions      [0 0 0 0 0 0 0];

internalField   nonuniform List<scalar> 
15000
(
0.2
0.200003
0.200211
0.202419
0.209517
0.221421
0.235785
0.250725
0.265322
0.279223
0.292322
0.304614
0.316134
0.326926
0.337041
0.346524
0.355421
0.363777
0.371633
0.379027
0.385996
0.392575
0.398797
0.404697
0.410306
0.415651
0.420756
0.42564
0.430324
0.434825
0.439157
0.443335
0.447371
0.451278
0.455069
0.458751
0.462335
0.46583
0.469243
0.472582
0.475855
0.479067
0.482225
0.485333
0.488395
0.491416
0.4944
0.497348
0.500264
0.503149
0.506004
0.508829
0.511625
0.514393
0.517132
0.51984
0.522518
0.525164
0.527778
0.53036
0.532909
0.535426
0.537909
0.54036
0.54278
0.545171
0.547533
0.549869
0.552181
0.55447
0.55674
0.558994
0.561233
0.563461
0.565681
0.567895
0.570107
0.572321
0.57454
0.576767
0.579005
0.58126
0.583536
0.585837
0.588168
0.590534
0.592942
0.5954
0.597915
0.600496
0.603156
0.605907
0.60877
0.611767
0.614929
0.618296
0.621921
0.62588
0.630276
0.635257
0.641043
0.647968
0.656563
0.667683
0.682694
0.703449
0.73085
0.760424
0.782419
0.793439
0.797714
0.79921
0.799722
0.7999
0.799963
0.799986
0.799994
0.799998
0.799999
0.8
0.8
0.8
0.8
0.8
0.8
0.8
0.8
0.8
0.8
0.8
0.8
0.8
0.8
0.8
0.8
0.8
0.8
0.8
0.8
0.8
0.8
0.8
0.8
0.8
0.8
0.8
0.8
0.8
0.8
0.8
0.200003
0.20006
0.20089
0.204923
0.21388
0.226559
0.240858
0.255396
0.269522
0.282982
0.295697
0.307665
0.318915
0.329483
0.339408
0.348733
0.357498
0.365742
0.373503
0.380816
0.387714
0.394231
0.4004
0.406255
0.411824
0.417133
0.422205
0.427061
0.431718
0.436192
0.440498
0.444651
0.448663
0.452548
0.456315
0.459974
0.463534
0.467005
0.470395
0.473712
0.476962
0.480153
0.483289
0.486375
0.489417
0.492418
0.495383
0.498315
0.501214
0.504083
0.506924
0.509737
0.512523
0.515282
0.518014
0.520716
0.523389
0.526033
0.528646
0.531229
0.533779
0.536298
0.538784
0.541239
0.543664
0.54606
0.548429
0.550771
0.553089
0.555386
0.557664
0.559927
0.562175
0.564413
0.566644
0.56887
0.571097
0.573326
0.575562
0.577807
0.580068
0.582348
0.584651
0.586982
0.589348
0.591755
0.59421
0.596721
0.599298
0.601951
0.604694
0.607543
0.610521
0.613657
0.616986
0.620558
0.62444
0.628724
0.633539
0.639074
0.645612
0.653586
0.66369
0.677024
0.695212
0.71981
0.749115
0.77483
0.78996
0.796427
0.798771
0.799576
0.799851
0.799946
0.79998
0.799992
0.799997
0.799999
0.8
0.8
0.8
0.8
0.8
0.8
0.8
0.8
0.8
0.8
0.8
0.8
0.8
0.8
0.8
0.8
0.8
0.8
0.8
0.8
0.8
0.8
0.8
0.8
0.8
0.8
0.8
0.8
0.8
0.8
0.8
0.8
0.200205
0.200874
0.203606
0.210291
0.220905
0.233879
0.247733
0.261595
0.275046
0.287906
0.300114
0.311659
0.322557
0.332831
0.342511
0.351631
0.360222
0.368318
0.375952
0.383154
0.389956
0.39639
0.402487
0.408278
0.413791
0.419049
0.424073
0.428883
0.433496
0.437928
0.442193
0.446305
0.450279
0.454125
0.457853
0.461474
0.464998
0.468432
0.471786
0.475067
0.478283
0.481439
0.484541
0.487595
0.490606
0.493579
0.496516
0.499422
0.502298
0.505146
0.507968
0.510765
0.513538
0.516286
0.519007
0.521703
0.524371
0.527011
0.529622
0.532204
0.534755
0.537275
0.539763
0.542221
0.544649
0.54705
0.549422
0.551768
0.554091
0.556393
0.558677
0.560946
0.563201
0.565446
0.567685
0.569922
0.572159
0.5744
0.576648
0.57891
0.581189
0.583489
0.585816
0.588175
0.590574
0.593019
0.595518
0.59808
0.600715
0.603438
0.606264
0.609211
0.612305
0.615583
0.619087
0.622878
0.627038
0.631682
0.636976
0.643164
0.650619
0.659925
0.672009
0.688299
0.710534
0.738695
0.766718
0.785759
0.794773
0.798198
0.799387
0.799789
0.799926
0.799974
0.79999
0.799996
0.799999
0.799999
0.8
0.8
0.8
0.8
0.8
0.8
0.8
0.8
0.8
0.8
0.8
0.8
0.8
0.8
0.8
0.8
0.8
0.8
0.8
0.8
0.8
0.8
0.8
0.8
0.8
0.8
0.8
0.8
0.8
0.8
0.8
0.8
0.202327
0.204795
0.210174
0.218922
0.230209
0.242842
0.255926
0.268936
0.281594
0.293767
0.305392
0.316451
0.326942
0.336876
0.346271
0.355149
0.363536
0.371456
0.378938
0.386008
0.392695
0.399028
0.405038
0.410751
0.416192
0.421384
0.426346
0.431096
0.43565
0.440025
0.444234
0.448293
0.452214
0.456007
0.459684
0.463253
0.466726
0.470111
0.473416
0.476649
0.479817
0.482926
0.485984
0.488995
0.491965
0.494899
0.497801
0.500673
0.503519
0.50634
0.509138
0.511915
0.51467
0.517403
0.520113
0.5228
0.525462
0.528098
0.530707
0.533288
0.535839
0.53836
0.54085
0.543311
0.545743
0.548145
0.55052
0.552869
0.555195
0.5575
0.559787
0.562059
0.564318
0.566568
0.568813
0.571057
0.573301
0.575551
0.577811
0.580086
0.58238
0.584698
0.587046
0.589431
0.59186
0.594341
0.596881
0.599493
0.602188
0.604981
0.60789
0.610938
0.614154
0.617582
0.621276
0.625307
0.629782
0.634844
0.640711
0.647706
0.656332
0.667388
0.682129
0.702284
0.728853
0.758069
0.780735
0.792667
0.797455
0.799143
0.799712
0.799902
0.799966
0.799988
0.799996
0.799998
0.799999
0.8
0.8
0.8
0.8
0.8
0.8
0.8
0.8
0.8
0.8
0.8
0.8
0.8
0.8
0.8
0.8
0.8
0.8
0.8
0.8
0.8
0.8
0.8
0.8
0.8
0.8
0.8
0.8
0.8
0.8
0.8
0.8
0.8
0.209139
0.213469
0.220528
0.229968
0.240994
0.252848
0.264987
0.277071
0.288896
0.300348
0.311361
0.321904
0.33196
0.341527
0.350612
0.359226
0.367387
0.375113
0.382425
0.389348
0.395907
0.402128
0.408038
0.413661
0.41902
0.424132
0.429018
0.433695
0.438177
0.442481
0.446623
0.450614
0.454469
0.458196
0.461808
0.465314
0.468724
0.472046
0.475289
0.47846
0.481568
0.484619
0.48762
0.490577
0.493496
0.496381
0.499237
0.502068
0.504876
0.507664
0.510433
0.513185
0.515919
0.518635
0.521332
0.524009
0.526664
0.529295
0.531902
0.534483
0.537035
0.539558
0.542051
0.544514
0.546948
0.549352
0.551729
0.554079
0.556407
0.558713
0.561001
0.563274
0.565535
0.567788
0.570036
0.572283
0.574533
0.576789
0.579057
0.581342
0.583649
0.585983
0.58835
0.590759
0.593216
0.595731
0.598313
0.600975
0.60373
0.606595
0.609591
0.612746
0.616098
0.619691
0.623596
0.627905
0.632748
0.638317
0.644895
0.652921
0.663091
0.676505
0.694796
0.71952
0.748947
0.774769
0.789981
0.796483
0.798824
0.799612
0.799872
0.799957
0.799985
0.799995
0.799998
0.799999
0.8
0.8
0.8
0.8
0.8
0.8
0.8
0.8
0.8
0.8
0.8
0.8
0.8
0.8
0.8
0.8
0.8
0.8
0.8
0.8
0.8
0.8
0.8
0.8
0.8
0.8
0.8
0.8
0.8
0.8
0.8
0.8
0.8
0.8
0.220563
0.225713
0.233116
0.242248
0.252512
0.263404
0.274558
0.285721
0.296727
0.307467
0.317872
0.327895
0.337509
0.3467
0.355464
0.363804
0.371728
0.37925
0.386385
0.393153
0.399576
0.405678
0.41148
0.417005
0.422269
0.427293
0.432092
0.436682
0.441081
0.445303
0.449363
0.453275
0.45705
0.4607
0.464235
0.467664
0.470998
0.474244
0.477412
0.48051
0.483545
0.486525
0.489457
0.492347
0.495203
0.498029
0.500831
0.503611
0.506374
0.509121
0.511856
0.514578
0.517288
0.519984
0.522666
0.525332
0.527979
0.530607
0.533213
0.535793
0.538347
0.540873
0.543369
0.545836
0.548272
0.550678
0.553056
0.555407
0.557734
0.56004
0.562328
0.5646
0.56686
0.569113
0.571362
0.57361
0.575863
0.578123
0.580398
0.58269
0.585007
0.587354
0.589739
0.59217
0.594655
0.597204
0.599828
0.602541
0.605358
0.608298
0.611389
0.614662
0.618162
0.621945
0.626097
0.630735
0.636028
0.642228
0.64972
0.659109
0.671366
0.687979
0.710751
0.73955
0.767822
0.786568
0.795206
0.798405
0.799482
0.799833
0.799946
0.799982
0.799994
0.799998
0.799999
0.8
0.8
0.8
0.8
0.8
0.8
0.8
0.8
0.8
0.8
0.8
0.8
0.8
0.8
0.8
0.8
0.8
0.8
0.8
0.8
0.8
0.8
0.8
0.8
0.8
0.8
0.8
0.8
0.8
0.8
0.8
0.8
0.8
0.8
0.8
0.234331
0.239472
0.246482
0.254887
0.264235
0.274156
0.28437
0.294669
0.304906
0.314974
0.324796
0.334317
0.3435
0.352321
0.360767
0.368833
0.376521
0.383837
0.390793
0.397405
0.403691
0.40967
0.415362
0.420782
0.425947
0.430872
0.435574
0.440068
0.444371
0.448499
0.452466
0.456286
0.45997
0.46353
0.466976
0.470317
0.473562
0.47672
0.4798
0.48281
0.485759
0.488655
0.491504
0.494316
0.497096
0.499852
0.502587
0.505308
0.508016
0.510716
0.513409
0.516097
0.518778
0.521453
0.524118
0.526772
0.529412
0.532037
0.534642
0.537225
0.539783
0.542313
0.544814
0.547285
0.549725
0.552134
0.554513
0.556864
0.55919
0.561493
0.563778
0.566048
0.568306
0.570557
0.572804
0.575052
0.577305
0.579567
0.581845
0.584143
0.586468
0.588827
0.591228
0.593679
0.59619
0.598773
0.60144
0.604206
0.607089
0.610113
0.613309
0.616714
0.620385
0.624394
0.62884
0.63388
0.639737
0.646751
0.655452
0.666694
0.681818
0.702661
0.730192
0.760009
0.782313
0.793534
0.79785
0.799311
0.799783
0.799932
0.799979
0.799993
0.799998
0.799999
0.8
0.8
0.8
0.8
0.8
0.8
0.8
0.8
0.8
0.8
0.8
0.8
0.8
0.8
0.8
0.8
0.8
0.8
0.8
0.8
0.8
0.8
0.8
0.8
0.8
0.8
0.8
0.8
0.8
0.8
0.8
0.8
0.8
0.8
0.8
0.8
0.248601
0.253389
0.259777
0.267378
0.27584
0.284869
0.294235
0.303757
0.313297
0.322749
0.332032
0.341084
0.34986
0.35833
0.366472
0.374275
0.381734
0.388851
0.395634
0.402095
0.408249
0.41411
0.41969
0.425004
0.430064
0.434885
0.439482
0.44387
0.448067
0.452089
0.455952
0.459668
0.46325
0.466709
0.470055
0.473295
0.476439
0.479495
0.482473
0.485382
0.48823
0.491026
0.493778
0.496497
0.499188
0.50186
0.504518
0.507167
0.509811
0.512455
0.5151
0.517747
0.520395
0.523045
0.525691
0.528334
0.530968
0.53359
0.536198
0.538785
0.54135
0.543887
0.546396
0.548874
0.551319
0.553732
0.556112
0.558463
0.560787
0.563087
0.565368
0.567633
0.569887
0.572134
0.574378
0.576623
0.578875
0.581137
0.583416
0.585718
0.588049
0.590417
0.592832
0.595303
0.597841
0.600459
0.60317
0.605993
0.608949
0.612066
0.615379
0.618938
0.62281
0.627087
0.631902
0.63745
0.644038
0.652134
0.662488
0.676302
0.69534
0.721198
0.751585
0.777164
0.791376
0.797119
0.799087
0.799717
0.799913
0.799974
0.799992
0.799998
0.799999
0.8
0.8
0.8
0.8
0.8
0.8
0.8
0.8
0.8
0.8
0.8
0.8
0.8
0.8
0.8
0.8
0.8
0.8
0.8
0.8
0.8
0.8
0.8
0.8
0.8
0.8
0.8
0.8
0.8
0.8
0.8
0.8
0.8
0.8
0.8
0.8
0.8
0.262462
0.266823
0.272591
0.279457
0.287139
0.295394
0.304024
0.312867
0.321794
0.330699
0.339498
0.348125
0.356531
0.364677
0.372539
0.380097
0.387345
0.394278
0.400902
0.407226
0.41326
0.419009
0.424484
0.429694
0.434649
0.439362
0.443847
0.44812
0.4522
0.456105
0.45985
0.463451
0.46692
0.470267
0.473501
0.476629
0.479659
0.482601
0.485463
0.488254
0.490985
0.493664
0.496304
0.498912
0.501499
0.504071
0.506636
0.5092
0.511769
0.514346
0.516934
0.519533
0.522145
0.524765
0.527392
0.530023
0.532652
0.535275
0.537888
0.540484
0.543059
0.545609
0.54813
0.550618
0.553072
0.555491
0.557875
0.560226
0.562547
0.564843
0.567117
0.569377
0.571624
0.573866
0.576105
0.578346
0.580594
0.582855
0.585133
0.587436
0.589771
0.592147
0.594575
0.597064
0.599629
0.602283
0.605042
0.607927
0.610965
0.614188
0.617639
0.621381
0.625496
0.630105
0.635386
0.641604
0.649169
0.658752
0.671428
0.688848
0.712878
0.742908
0.77117
0.788657
0.796171
0.798795
0.799632
0.79989
0.799967
0.79999
0.799997
0.799999
0.8
0.8
0.8
0.8
0.8
0.8
0.8
0.8
0.8
0.8
0.8
0.8
0.8
0.8
0.8
0.8
0.8
0.8
0.8
0.8
0.8
0.8
0.8
0.8
0.8
0.8
0.8
0.8
0.8
0.8
0.8
0.8
0.8
0.8
0.8
0.8
0.8
0.8
0.275559
0.279525
0.284755
0.291
0.298029
0.305637
0.31365
0.321919
0.330322
0.338756
0.347135
0.355391
0.36347
0.37133
0.378942
0.386283
0.393343
0.400116
0.406606
0.412814
0.418744
0.424398
0.429778
0.434891
0.439744
0.444348
0.448716
0.452866
0.456818
0.460592
0.464208
0.467682
0.471026
0.47425
0.477361
0.480366
0.483271
0.486083
0.488812
0.491469
0.494063
0.496608
0.499114
0.501593
0.504055
0.506509
0.508964
0.511427
0.513904
0.516401
0.518921
0.521466
0.524033
0.526622
0.529228
0.531846
0.534472
0.5371
0.539722
0.542333
0.544925
0.547494
0.550033
0.552539
0.555007
0.557437
0.559826
0.562178
0.564496
0.566785
0.569053
0.571304
0.573544
0.575779
0.578012
0.580249
0.582493
0.58475
0.587026
0.589328
0.591666
0.594047
0.596485
0.598993
0.601584
0.604275
0.607086
0.610042
0.613173
0.61652
0.620137
0.6241
0.628517
0.63355
0.639438
0.646553
0.655484
0.667184
0.683167
0.705388
0.7344
0.764524
0.785358
0.794977
0.798424
0.799525
0.79986
0.799959
0.799988
0.799997
0.799999
0.8
0.8
0.8
0.8
0.8
0.8
0.8
0.8
0.8
0.8
0.8
0.8
0.8
0.8
0.8
0.8
0.8
0.8
0.8
0.8
0.8
0.8
0.8
0.8
0.8
0.8
0.8
0.8
0.8
0.8
0.8
0.8
0.8
0.8
0.8
0.8
0.8
0.8
0.8
0.287785
0.291417
0.296209
0.301954
0.308459
0.315545
0.323057
0.330859
0.338832
0.346876
0.354905
0.362849
0.370651
0.378268
0.385668
0.392827
0.399733
0.406381
0.412767
0.418889
0.424741
0.43032
0.435625
0.440657
0.445419
0.449918
0.454167
0.458186
0.461997
0.465626
0.469097
0.472429
0.475636
0.478726
0.481705
0.484575
0.487341
0.490009
0.492587
0.495087
0.497523
0.499908
0.502257
0.504582
0.506895
0.509207
0.511529
0.51387
0.516237
0.518638
0.521077
0.523555
0.526072
0.528624
0.531207
0.533814
0.53644
0.539076
0.541715
0.544347
0.546966
0.549564
0.552132
0.554668
0.557176
0.559642
0.562057
0.564415
0.566728
0.569009
0.571264
0.573502
0.575729
0.577951
0.580174
0.5824
0.584635
0.586883
0.589151
0.591448
0.593781
0.596163
0.598608
0.60113
0.603747
0.606477
0.609346
0.612383
0.615624
0.619119
0.622939
0.627181
0.63199
0.637582
0.644291
0.652646
0.663505
0.678238
0.698785
0.726468
0.757543
0.781545
0.793531
0.797971
0.799395
0.799824
0.79995
0.799986
0.799996
0.799999
0.8
0.8
0.8
0.8
0.8
0.8
0.8
0.8
0.8
0.8
0.8
0.8
0.8
0.8
0.8
0.8
0.8
0.8
0.8
0.8
0.8
0.8
0.8
0.8
0.8
0.8
0.8
0.8
0.8
0.8
0.8
0.8
0.8
0.8
0.8
0.8
0.8
0.8
0.8
0.8
0.299129
0.302495
0.306945
0.312305
0.318406
0.325091
0.332217
0.339657
0.347296
0.355034
0.362787
0.370482
0.378064
0.385488
0.392721
0.399743
0.40654
0.413106
0.419429
0.425501
0.431311
0.43685
0.442113
0.447091
0.451783
0.456191
0.460323
0.464201
0.467854
0.471317
0.474621
0.477793
0.480849
0.483796
0.486633
0.489359
0.491972
0.494477
0.496882
0.4992
0.501448
0.503643
0.505802
0.507942
0.510076
0.512216
0.514376
0.516566
0.518797
0.52108
0.523419
0.525817
0.528273
0.530783
0.53334
0.535938
0.538568
0.541219
0.543883
0.546549
0.549207
0.551847
0.554464
0.557072
0.559637
0.562148
0.564596
0.566978
0.569291
0.571564
0.573809
0.576036
0.578253
0.580467
0.582681
0.584898
0.587124
0.589361
0.591616
0.593899
0.596219
0.598592
0.601033
0.60356
0.606196
0.608965
0.611895
0.615023
0.618395
0.622074
0.626151
0.630755
0.636085
0.642443
0.650309
0.66046
0.674148
0.69324
0.719493
0.750787
0.777404
0.791885
0.797448
0.799245
0.799783
0.799939
0.799983
0.799995
0.799999
0.8
0.8
0.8
0.8
0.8
0.8
0.8
0.8
0.8
0.8
0.8
0.8
0.8
0.8
0.8
0.8
0.8
0.8
0.8
0.8
0.8
0.8
0.8
0.8
0.8
0.8
0.8
0.8
0.8
0.8
0.8
0.8
0.8
0.8
0.8
0.8
0.8
0.8
0.8
0.8
0.8
0.309619
0.312781
0.316978
0.322058
0.327869
0.334269
0.341122
0.348306
0.355708
0.363227
0.37078
0.378296
0.385718
0.393006
0.400129
0.407068
0.413811
0.420344
0.426654
0.432725
0.438545
0.444098
0.449371
0.454347
0.459011
0.463356
0.467383
0.471112
0.474582
0.477844
0.480949
0.483934
0.486821
0.489612
0.492301
0.494874
0.497322
0.499644
0.501847
0.503947
0.505967
0.50793
0.509858
0.51177
0.513683
0.515609
0.517565
0.519566
0.521627
0.52376
0.525975
0.528274
0.530656
0.533116
0.535645
0.538235
0.540873
0.543549
0.546249
0.548963
0.551678
0.554382
0.557103
0.559801
0.562457
0.565049
0.567558
0.569973
0.572289
0.574552
0.576784
0.578999
0.581209
0.583419
0.585632
0.587849
0.590071
0.592301
0.594544
0.596811
0.599112
0.601465
0.60389
0.606411
0.609057
0.611859
0.614854
0.618087
0.621617
0.625528
0.629939
0.635032
0.641087
0.648544
0.658118
0.670966
0.688868
0.713793
0.744823
0.773328
0.790164
0.796897
0.799088
0.799741
0.799928
0.799981
0.799995
0.799999
0.8
0.8
0.8
0.8
0.8
0.8
0.8
0.8
0.8
0.8
0.8
0.8
0.8
0.8
0.8
0.8
0.8
0.8
0.8
0.8
0.8
0.8
0.8
0.8
0.8
0.8
0.8
0.8
0.8
0.8
0.8
0.8
0.8
0.8
0.8
0.8
0.8
0.8
0.8
0.8
0.8
0.8
0.319292
0.322308
0.326333
0.331231
0.336862
0.343089
0.349783
0.356819
0.364082
0.371474
0.378909
0.386318
0.39365
0.400867
0.407944
0.414865
0.421614
0.428175
0.434534
0.440675
0.446581
0.452233
0.457605
0.462709
0.467637
0.472197
0.476174
0.47975
0.482988
0.485974
0.488799
0.491527
0.494189
0.496787
0.499299
0.501691
0.503935
0.50602
0.507953
0.509754
0.511456
0.513097
0.514706
0.516309
0.517922
0.51956
0.521241
0.522986
0.524816
0.52675
0.528798
0.530967
0.533254
0.535651
0.538147
0.540728
0.543381
0.546091
0.548843
0.551625
0.554422
0.557254
0.560111
0.562963
0.565784
0.568538
0.571179
0.573669
0.576005
0.578257
0.58047
0.582668
0.584868
0.587078
0.589296
0.591519
0.593744
0.59597
0.5982
0.600443
0.602712
0.605027
0.607414
0.609907
0.612544
0.615369
0.618428
0.621781
0.625508
0.629723
0.634593
0.640382
0.647503
0.656627
0.668843
0.685854
0.709717
0.74027
0.769936
0.78859
0.796394
0.798948
0.799704
0.799919
0.799978
0.799994
0.799999
0.8
0.8
0.8
0.8
0.8
0.8
0.8
0.8
0.8
0.8
0.8
0.8
0.8
0.8
0.8
0.8
0.8
0.8
0.8
0.8
0.8
0.8
0.8
0.8
0.8
0.8
0.8
0.8
0.8
0.8
0.8
0.8
0.8
0.8
0.8
0.8
0.8
0.8
0.8
0.8
0.8
0.8
0.8
0.328187
0.331109
0.335039
0.33985
0.345409
0.351581
0.358231
0.365231
0.372462
0.379822
0.387227
0.39461
0.401927
0.409148
0.416251
0.423223
0.430047
0.436712
0.443207
0.449519
0.455629
0.461516
0.467452
0.473543
0.479485
0.48507
0.48992
0.493241
0.496007
0.49839
0.5006
0.502775
0.504983
0.507226
0.509445
0.511553
0.513471
0.515162
0.516629
0.517902
0.51904
0.520112
0.521173
0.522256
0.523377
0.524549
0.525793
0.527134
0.528604
0.53023
0.532028
0.534003
0.53615
0.538455
0.540901
0.543469
0.54614
0.548895
0.551717
0.554592
0.557506
0.560517
0.563588
0.566706
0.569848
0.572963
0.575937
0.578622
0.580987
0.583229
0.585417
0.587595
0.589794
0.592021
0.594269
0.596522
0.598767
0.600997
0.603209
0.605409
0.60761
0.609838
0.61213
0.614537
0.617114
0.619923
0.623031
0.626519
0.630498
0.635132
0.640671
0.647516
0.656314
0.66812
0.684588
0.707782
0.737882
0.767972
0.787605
0.796058
0.79886
0.799683
0.799914
0.799977
0.799994
0.799998
0.8
0.8
0.8
0.8
0.8
0.8
0.8
0.8
0.8
0.8
0.8
0.8
0.8
0.8
0.8
0.8
0.8
0.8
0.8
0.8
0.8
0.8
0.8
0.8
0.8
0.8
0.8
0.8
0.8
0.8
0.8
0.8
0.8
0.8
0.8
0.8
0.8
0.8
0.8
0.8
0.8
0.8
0.8
0.8
0.336342
0.339218
0.343127
0.347948
0.353548
0.359787
0.366521
0.37361
0.380925
0.388358
0.395827
0.403273
0.41066
0.417964
0.425169
0.432267
0.439252
0.446122
0.452874
0.459507
0.466011
0.472869
0.480294
0.488123
0.496397
0.504546
0.511967
0.515784
0.517752
0.518894
0.519817
0.520857
0.5222
0.523862
0.525706
0.527488
0.528963
0.530031
0.530679
0.530959
0.530992
0.530949
0.530954
0.531059
0.531273
0.531599
0.532052
0.532669
0.533499
0.534587
0.535953
0.5376
0.539512
0.541663
0.544022
0.546558
0.549242
0.55205
0.554962
0.557962
0.561064
0.564334
0.567755
0.571353
0.575159
0.579147
0.583023
0.586212
0.588641
0.590867
0.592999
0.595134
0.597334
0.599614
0.601947
0.604282
0.606583
0.608828
0.611005
0.613112
0.615159
0.617176
0.619223
0.621388
0.623764
0.626448
0.62954
0.633163
0.63748
0.642743
0.649354
0.65796
0.669617
0.685966
0.709005
0.738771
0.768376
0.7877
0.796067
0.798864
0.799687
0.799916
0.799978
0.799994
0.799999
0.8
0.8
0.8
0.8
0.8
0.8
0.8
0.8
0.8
0.8
0.8
0.8
0.8
0.8
0.8
0.8
0.8
0.8
0.8
0.8
0.8
0.8
0.8
0.8
0.8
0.8
0.8
0.8
0.8
0.8
0.8
0.8
0.8
0.8
0.8
0.8
0.8
0.8
0.8
0.8
0.8
0.8
0.8
0.8
0.8
0.34382
0.346714
0.350687
0.355615
0.361353
0.367747
0.374636
0.381966
0.389595
0.39722
0.404858
0.412463
0.420006
0.427473
0.434862
0.442179
0.449434
0.456646
0.463836
0.471027
0.478638
0.487621
0.49793
0.509505
0.522593
0.535013
0.54795
0.55253
0.553143
0.551577
0.549828
0.548632
0.548452
0.549395
0.551197
0.554283
0.55545
0.55571
0.555032
0.553481
0.551302
0.549018
0.546961
0.545224
0.543768
0.542537
0.541523
0.54078
0.54041
0.540494
0.541069
0.542124
0.543617
0.545492
0.547688
0.55015
0.552831
0.555695
0.558717
0.561882
0.565266
0.568903
0.572864
0.577287
0.582433
0.588446
0.594588
0.598769
0.601432
0.603521
0.60543
0.607388
0.609554
0.611971
0.614551
0.617131
0.619615
0.621953
0.624115
0.626075
0.627823
0.629385
0.630863
0.632445
0.634314
0.636644
0.639605
0.64339
0.648265
0.654651
0.663231
0.675099
0.691884
0.715308
0.744534
0.772074
0.789246
0.796546
0.798993
0.799722
0.799926
0.79998
0.799995
0.799999
0.8
0.8
0.8
0.8
0.8
0.8
0.8
0.8
0.8
0.8
0.8
0.8
0.8
0.8
0.8
0.8
0.8
0.8
0.8
0.8
0.8
0.8
0.8
0.8
0.8
0.8
0.8
0.8
0.8
0.8
0.8
0.8
0.8
0.8
0.8
0.8
0.8
0.8
0.8
0.8
0.8
0.8
0.8
0.8
0.8
0.8
0.350664
0.353655
0.357798
0.362963
0.36899
0.375697
0.382898
0.390496
0.398347
0.406163
0.414521
0.422402
0.430185
0.437898
0.445563
0.453213
0.460889
0.468645
0.476553
0.484702
0.495135
0.508222
0.524343
0.541135
0.560356
0.574209
0.590993
0.594663
0.594389
0.589016
0.584021
0.580261
0.578599
0.579532
0.58513
0.593335
0.596689
0.596695
0.594632
0.590375
0.584184
0.577803
0.572222
0.567537
0.563468
0.559747
0.556271
0.553137
0.550594
0.548856
0.548011
0.548023
0.548792
0.550194
0.552107
0.55443
0.55708
0.560001
0.563156
0.566536
0.570258
0.574402
0.579152
0.584884
0.592496
0.60243
0.61296
0.618105
0.620971
0.622407
0.62369
0.625204
0.627337
0.630236
0.634016
0.637473
0.640445
0.643134
0.645501
0.647463
0.648913
0.649783
0.650201
0.650669
0.651562
0.65324
0.656018
0.660232
0.666352
0.675123
0.687676
0.705452
0.729242
0.756308
0.77902
0.792023
0.797401
0.799224
0.799781
0.799941
0.799984
0.799996
0.799999
0.8
0.8
0.8
0.8
0.8
0.8
0.8
0.8
0.8
0.8
0.8
0.8
0.8
0.8
0.8
0.8
0.8
0.8
0.8
0.8
0.8
0.8
0.8
0.8
0.8
0.8
0.8
0.8
0.8
0.8
0.8
0.8
0.8
0.8
0.8
0.8
0.8
0.8
0.8
0.8
0.8
0.8
0.8
0.8
0.8
0.8
0.8
0.356913
0.360083
0.364518
0.37008
0.376582
0.383797
0.391499
0.399534
0.407738
0.415914
0.424463
0.432841
0.441481
0.449547
0.457607
0.465747
0.474065
0.482685
0.491784
0.503
0.518097
0.539071
0.563449
0.581995
0.603614
0.609661
0.615031
0.656803
0.67182
0.607425
0.603694
0.600597
0.599477
0.60197
0.611746
0.625038
0.630048
0.632018
0.631543
0.627715
0.618832
0.609014
0.600868
0.5943
0.588442
0.582597
0.576466
0.570219
0.564516
0.560017
0.557008
0.555452
0.555152
0.555869
0.557382
0.559511
0.562118
0.56511
0.568436
0.572095
0.576227
0.580989
0.586727
0.594239
0.605801
0.621068
0.635955
0.641395
0.644255
0.643977
0.644352
0.645265
0.64763
0.652002
0.662017
0.668683
0.673623
0.677962
0.681797
0.684893
0.686795
0.686835
0.68478
0.682631
0.681165
0.681255
0.683572
0.688727
0.69749
0.710768
0.729055
0.75098
0.772059
0.787135
0.795067
0.798333
0.799481
0.799848
0.799957
0.799989
0.799997
0.799999
0.8
0.8
0.8
0.8
0.8
0.8
0.8
0.8
0.8
0.8
0.8
0.8
0.8
0.8
0.8
0.8
0.8
0.8
0.8
0.8
0.8
0.8
0.8
0.8
0.8
0.8
0.8
0.8
0.8
0.8
0.8
0.8
0.8
0.8
0.8
0.8
0.8
0.8
0.8
0.8
0.8
0.8
0.8
0.8
0.8
0.8
0.8
0.8
0.362606
0.36605
0.370925
0.37709
0.384317
0.392304
0.400743
0.409409
0.418129
0.426798
0.435641
0.444323
0.453286
0.462863
0.471489
0.480359
0.489678
0.49972
0.510906
0.528202
0.550952
0.583013
0.612649
0.622894
0.631196
0.757876
0.798685
0.79885
0.796645
0.78703
0.671184
0.615112
0.614062
0.618672
0.634557
0.642449
0.720509
0.790832
0.775578
0.685661
0.630053
0.623802
0.618803
0.614814
0.61072
0.605534
0.598597
0.589893
0.580715
0.572907
0.567282
0.563859
0.562319
0.562271
0.563368
0.565329
0.567946
0.571074
0.574639
0.578651
0.583234
0.588639
0.595411
0.60498
0.622116
0.640543
0.651621
0.709876
0.744892
0.667211
0.665826
0.665092
0.667389
0.674957
0.701615
0.710948
0.719519
0.728492
0.737862
0.746078
0.751135
0.749684
0.739056
0.7297
0.722662
0.719716
0.721937
0.729546
0.742109
0.757914
0.773684
0.786026
0.793628
0.797442
0.799077
0.799694
0.799905
0.799972
0.799992
0.799998
0.799999
0.8
0.8
0.8
0.8
0.8
0.8
0.8
0.8
0.8
0.8
0.8
0.8
0.8
0.8
0.8
0.8
0.8
0.8
0.8
0.8
0.8
0.8
0.8
0.8
0.8
0.8
0.8
0.8
0.8
0.8
0.8
0.8
0.8
0.8
0.8
0.8
0.8
0.8
0.8
0.8
0.8
0.8
0.8
0.8
0.8
0.8
0.8
0.8
0.8
0.367789
0.371614
0.377118
0.384174
0.392495
0.401633
0.411119
0.420649
0.430063
0.43933
0.448577
0.457694
0.467035
0.476976
0.487973
0.498009
0.509013
0.521641
0.538845
0.569045
0.597808
0.636848
0.649121
0.754711
0.798663
0.799795
0.799993
0.799996
0.799987
0.799936
0.798527
0.708588
0.633932
0.639676
0.65803
0.785849
0.7999
0.799983
0.799889
0.798317
0.69366
0.634601
0.632364
0.631585
0.630404
0.627554
0.621589
0.611037
0.597309
0.585642
0.577345
0.572168
0.569536
0.56888
0.569725
0.571691
0.574486
0.577904
0.581826
0.586276
0.591316
0.597278
0.604877
0.616502
0.641156
0.655999
0.77316
0.799806
0.79983
0.797591
0.763026
0.682182
0.685018
0.704672
0.74164
0.795272
0.799969
0.798994
0.799989
0.799966
0.799762
0.794875
0.757239
0.757326
0.75364
0.75375
0.759794
0.7697
0.780251
0.788795
0.794356
0.797407
0.798891
0.799557
0.799839
0.799947
0.799984
0.799995
0.799999
0.8
0.8
0.8
0.8
0.8
0.8
0.8
0.8
0.8
0.8
0.8
0.8
0.8
0.8
0.8
0.8
0.8
0.8
0.8
0.8
0.8
0.8
0.8
0.8
0.8
0.8
0.8
0.8
0.8
0.8
0.8
0.8
0.8
0.8
0.8
0.8
0.8
0.8
0.8
0.8
0.8
0.8
0.8
0.8
0.8
0.8
0.8
0.8
0.8
0.8
0.8
0.372506
0.376828
0.38321
0.391593
0.4016
0.412494
0.423464
0.434138
0.444425
0.454385
0.464162
0.473847
0.483785
0.494357
0.506312
0.520471
0.534832
0.553267
0.590157
0.641805
0.660717
0.68615
0.79535
0.799716
0.79999
0.799999
0.8
0.8
0.8
0.8
0.799992
0.795597
0.747878
0.665917
0.756019
0.798751
0.799994
0.8
0.8
0.799993
0.797639
0.669002
0.730891
0.760319
0.751701
0.695178
0.654786
0.61551
0.603498
0.592874
0.584502
0.578882
0.575887
0.575113
0.576106
0.578448
0.581778
0.585802
0.59029
0.595318
0.600841
0.607178
0.615024
0.628309
0.660327
0.7877
0.799921
0.8
0.8
0.79999
0.799775
0.758104
0.708235
0.752285
0.78674
0.799261
0.799998
0.799998
0.8
0.8
0.8
0.799996
0.799938
0.797056
0.771458
0.778116
0.785675
0.791827
0.795818
0.798021
0.79911
0.79961
0.79983
0.799927
0.799973
0.799991
0.799997
0.799999
0.8
0.8
0.8
0.8
0.8
0.8
0.8
0.8
0.8
0.8
0.8
0.8
0.8
0.8
0.8
0.8
0.8
0.8
0.8
0.8
0.8
0.8
0.8
0.8
0.8
0.8
0.8
0.8
0.8
0.8
0.8
0.8
0.8
0.8
0.8
0.8
0.8
0.8
0.8
0.8
0.8
0.8
0.8
0.8
0.8
0.8
0.8
0.8
0.8
0.8
0.8
0.8
0.376797
0.381721
0.389299
0.399702
0.412461
0.426226
0.439362
0.451558
0.462904
0.473645
0.484085
0.494527
0.505407
0.51725
0.530936
0.548788
0.574408
0.610545
0.678093
0.727003
0.793609
0.798467
0.799961
0.799998
0.8
0.8
0.8
0.8
0.8
0.8
0.8
0.79997
0.791945
0.695318
0.781787
0.799717
0.799999
0.8
0.8
0.8
0.774691
0.709267
0.789171
0.799511
0.79903
0.763741
0.693947
0.619187
0.6072
0.597304
0.589339
0.583918
0.581156
0.580817
0.582539
0.58592
0.590528
0.595986
0.601544
0.607628
0.614556
0.622514
0.632683
0.650259
0.693017
0.795582
0.799983
0.8
0.8
0.8
0.799999
0.789238
0.757123
0.795852
0.798974
0.799915
0.8
0.8
0.8
0.8
0.8
0.8
0.8
0.79996
0.791723
0.795082
0.797465
0.798816
0.799477
0.799775
0.799904
0.799958
0.79998
0.799989
0.799996
0.799999
0.8
0.8
0.8
0.8
0.8
0.8
0.8
0.8
0.8
0.8
0.8
0.8
0.8
0.8
0.8
0.8
0.8
0.8
0.8
0.8
0.8
0.8
0.8
0.8
0.8
0.8
0.8
0.8
0.8
0.8
0.8
0.8
0.8
0.8
0.8
0.8
0.8
0.8
0.8
0.8
0.8
0.8
0.8
0.8
0.8
0.8
0.8
0.8
0.8
0.8
0.8
0.8
0.8
0.8
0.380685
0.386243
0.395348
0.408877
0.426601
0.445887
0.462589
0.476994
0.489492
0.50097
0.512194
0.523737
0.536304
0.550835
0.568893
0.594429
0.64055
0.72232
0.785462
0.79911
0.799958
0.799985
0.8
0.8
0.8
0.8
0.8
0.8
0.8
0.8
0.8
0.799998
0.799444
0.739945
0.797556
0.799995
0.8
0.8
0.8
0.8
0.790845
0.760661
0.799479
0.799994
0.799993
0.790994
0.73332
0.621083
0.609399
0.599928
0.592437
0.587568
0.585553
0.586351
0.589883
0.596163
0.604914
0.642983
0.652854
0.661092
0.670055
0.678107
0.681053
0.691801
0.721241
0.796081
0.799982
0.8
0.8
0.8
0.8
0.797766
0.786348
0.799955
0.799994
0.799993
0.8
0.8
0.8
0.8
0.8
0.8
0.8
0.8
0.8
0.799988
0.799982
0.799995
0.799998
0.799998
0.799999
0.8
0.8
0.799998
0.799999
0.8
0.8
0.8
0.8
0.8
0.8
0.8
0.8
0.8
0.8
0.8
0.8
0.8
0.8
0.8
0.8
0.8
0.8
0.8
0.8
0.8
0.8
0.8
0.8
0.8
0.8
0.8
0.8
0.8
0.8
0.8
0.8
0.8
0.8
0.8
0.8
0.8
0.8
0.8
0.8
0.8
0.8
0.8
0.8
0.8
0.8
0.8
0.8
0.8
0.8
0.8
0.8
0.8
0.8
0.8
0.384176
0.390197
0.400903
0.419749
0.451432
0.494436
0.52987
0.559946
0.540888
0.546507
0.557851
0.570551
0.585554
0.604927
0.630978
0.672111
0.739399
0.793585
0.799868
0.799991
0.8
0.8
0.8
0.8
0.8
0.8
0.8
0.8
0.8
0.8
0.8
0.8
0.799994
0.773326
0.799749
0.8
0.8
0.8
0.8
0.8
0.797881
0.792937
0.799994
0.8
0.8
0.798671
0.710114
0.621743
0.610357
0.601403
0.594664
0.590822
0.590328
0.593558
0.601182
0.632389
0.670091
0.72003
0.789859
0.795498
0.790491
0.783205
0.721713
0.730508
0.742422
0.794779
0.79997
0.8
0.8
0.8
0.8
0.799624
0.797147
0.79997
0.8
0.8
0.8
0.8
0.8
0.8
0.8
0.8
0.8
0.8
0.8
0.8
0.8
0.8
0.8
0.8
0.8
0.8
0.8
0.8
0.8
0.8
0.8
0.8
0.8
0.8
0.8
0.8
0.8
0.8
0.8
0.8
0.8
0.8
0.8
0.8
0.8
0.8
0.8
0.8
0.8
0.8
0.8
0.8
0.8
0.8
0.8
0.8
0.8
0.8
0.8
0.8
0.8
0.8
0.8
0.8
0.8
0.8
0.8
0.8
0.8
0.8
0.8
0.8
0.8
0.8
0.8
0.8
0.8
0.8
0.8
0.8
0.8
0.8
0.8
0.8
0.387294
0.393297
0.404088
0.423286
0.455007
0.496908
0.618834
0.656934
0.651411
0.646437
0.653365
0.665464
0.663022
0.685858
0.709766
0.735224
0.797724
0.799928
0.799999
0.8
0.8
0.8
0.8
0.8
0.8
0.8
0.8
0.8
0.8
0.8
0.8
0.8
0.8
0.791183
0.799914
0.8
0.8
0.8
0.8
0.8
0.799565
0.799231
0.799999
0.8
0.8
0.799837
0.638787
0.620557
0.610132
0.602204
0.596999
0.595559
0.599059
0.608194
0.620592
0.778833
0.794056
0.798626
0.799848
0.799912
0.799829
0.799761
0.799083
0.790197
0.761051
0.792552
0.799949
0.8
0.8
0.8
0.8
0.799943
0.79952
0.799999
0.8
0.8
0.8
0.8
0.8
0.8
0.8
0.8
0.8
0.8
0.8
0.8
0.8
0.8
0.8
0.8
0.8
0.8
0.8
0.8
0.8
0.8
0.8
0.8
0.8
0.8
0.8
0.8
0.8
0.8
0.8
0.8
0.8
0.8
0.8
0.8
0.8
0.8
0.8
0.8
0.8
0.8
0.8
0.8
0.8
0.8
0.8
0.8
0.8
0.8
0.8
0.8
0.8
0.8
0.8
0.8
0.8
0.8
0.8
0.8
0.8
0.8
0.8
0.8
0.8
0.8
0.8
0.8
0.8
0.8
0.8
0.8
0.8
0.8
0.8
0.8
0.390235
0.395989
0.406222
0.424215
0.45336
0.49072
0.502171
0.783841
0.79207
0.799749
0.79503
0.759252
0.713409
0.785496
0.795255
0.799045
0.799965
0.799999
0.8
0.8
0.8
0.8
0.8
0.8
0.8
0.8
0.8
0.8
0.8
0.8
0.8
0.8
0.8
0.797648
0.799987
0.8
0.8
0.8
0.8
0.8
0.799918
0.79993
0.8
0.8
0.8
0.788836
0.634973
0.619061
0.60958
0.603559
0.601204
0.603643
0.611124
0.620521
0.764774
0.799282
0.799869
0.799981
0.799998
0.799999
0.799998
0.799997
0.799988
0.79922
0.78048
0.796725
0.799982
0.8
0.8
0.8
0.8
0.799992
0.799927
0.8
0.8
0.8
0.8
0.8
0.8
0.8
0.8
0.8
0.8
0.8
0.8
0.8
0.8
0.8
0.8
0.8
0.8
0.8
0.8
0.8
0.8
0.8
0.8
0.8
0.8
0.8
0.8
0.8
0.8
0.8
0.8
0.8
0.8