/*--------------------------------*- C++ -*----------------------------------*\
| =========                 |                                                 |
| \\      /  F ield         | OpenFOAM: The Open Source CFD Toolbox           |
|  \\    /   O peration     | Version:  2.1.0                                 |
|   \\  /    A nd           | Web:      www.OpenFOAM.org                      |
|    \\/     M anipulation  |                                                 |
\*---------------------------------------------------------------------------*/
FoamFile
{
    version     2.0;
    format      ascii;
    class       volScalarField;
    location    "24090";
    object      sw;
}
// * * * * * * * * * * * * * * * * * * * * * * * * * * * * * * * * * * * * * //

dimensions      [0 0 0 0 0 0 0];

internalField   nonuniform List<scalar> 
15000
(
0.8
0.799997
0.799789
0.797581
0.790483
0.778579
0.764215
0.749275
0.734678
0.720777
0.707678
0.695386
0.683866
0.673074
0.662959
0.653476
0.644579
0.636223
0.628367
0.620973
0.614004
0.607425
0.601203
0.595303
0.589694
0.584349
0.579244
0.57436
0.569676
0.565175
0.560843
0.556665
0.552629
0.548722
0.544931
0.541249
0.537665
0.53417
0.530757
0.527418
0.524145
0.520933
0.517775
0.514667
0.511605
0.508584
0.5056
0.502652
0.499736
0.496851
0.493996
0.491171
0.488375
0.485607
0.482868
0.48016
0.477482
0.474836
0.472222
0.46964
0.467091
0.464574
0.462091
0.45964
0.45722
0.454829
0.452467
0.450131
0.447819
0.44553
0.44326
0.441006
0.438767
0.436539
0.434319
0.432105
0.429893
0.427679
0.42546
0.423233
0.420995
0.41874
0.416464
0.414163
0.411832
0.409466
0.407058
0.4046
0.402085
0.399504
0.396844
0.394093
0.39123
0.388233
0.385071
0.381704
0.378079
0.37412
0.369724
0.364743
0.358957
0.352032
0.343437
0.332317
0.317306
0.296551
0.26915
0.239576
0.217581
0.206561
0.202286
0.20079
0.200278
0.2001
0.200037
0.200014
0.200006
0.200002
0.200001
0.2
0.2
0.2
0.2
0.2
0.2
0.2
0.2
0.2
0.2
0.2
0.2
0.2
0.2
0.2
0.2
0.2
0.2
0.2
0.2
0.2
0.2
0.2
0.2
0.2
0.2
0.2
0.2
0.2
0.2
0.2
0.799997
0.79994
0.79911
0.795077
0.78612
0.773441
0.759142
0.744604
0.730478
0.717018
0.704303
0.692335
0.681085
0.670517
0.660592
0.651267
0.642502
0.634258
0.626497
0.619184
0.612286
0.605769
0.5996
0.593745
0.588176
0.582867
0.577795
0.572939
0.568282
0.563808
0.559502
0.555349
0.551337
0.547452
0.543685
0.540026
0.536466
0.532995
0.529605
0.526288
0.523038
0.519847
0.516711
0.513625
0.510583
0.507582
0.504617
0.501685
0.498786
0.495917
0.493076
0.490263
0.487477
0.484718
0.481986
0.479284
0.476611
0.473967
0.471354
0.468771
0.466221
0.463702
0.461216
0.458761
0.456336
0.45394
0.451571
0.449229
0.446911
0.444614
0.442336
0.440073
0.437825
0.435587
0.433356
0.43113
0.428903
0.426674
0.424438
0.422193
0.419932
0.417652
0.415349
0.413018
0.410652
0.408245
0.40579
0.403279
0.400702
0.398049
0.395306
0.392457
0.389479
0.386343
0.383014
0.379442
0.37556
0.371276
0.366461
0.360926
0.354388
0.346414
0.33631
0.322976
0.304788
0.28019
0.250885
0.22517
0.21004
0.203573
0.201229
0.200424
0.200149
0.200054
0.20002
0.200008
0.200003
0.200001
0.2
0.2
0.2
0.2
0.2
0.2
0.2
0.2
0.2
0.2
0.2
0.2
0.2
0.2
0.2
0.2
0.2
0.2
0.2
0.2
0.2
0.2
0.2
0.2
0.2
0.2
0.2
0.2
0.2
0.2
0.2
0.2
0.799795
0.799126
0.796394
0.789709
0.779095
0.766121
0.752267
0.738405
0.724954
0.712094
0.699886
0.688341
0.677443
0.667169
0.657489
0.648369
0.639778
0.631682
0.624048
0.616846
0.610044
0.60361
0.597513
0.591722
0.586209
0.580951
0.575927
0.571117
0.566504
0.562072
0.557807
0.553695
0.549721
0.545875
0.542147
0.538526
0.535002
0.531568
0.528214
0.524933
0.521717
0.518561
0.515459
0.512405
0.509394
0.506421
0.503484
0.500578
0.497702
0.494854
0.492032
0.489235
0.486462
0.483714
0.480993
0.478297
0.475629
0.472989
0.470378
0.467796
0.465245
0.462725
0.460237
0.457779
0.455351
0.45295
0.450578
0.448232
0.445909
0.443607
0.441323
0.439054
0.436799
0.434554
0.432315
0.430078
0.427841
0.4256
0.423352
0.42109
0.418811
0.416511
0.414184
0.411825
0.409426
0.406981
0.404482
0.40192
0.399285
0.396562
0.393736
0.390789
0.387695
0.384417
0.380913
0.377122
0.372962
0.368318
0.363024
0.356836
0.349381
0.340075
0.327991
0.311701
0.289466
0.261305
0.233282
0.214241
0.205227
0.201802
0.200613
0.200211
0.200074
0.200026
0.20001
0.200004
0.200001
0.200001
0.2
0.2
0.2
0.2
0.2
0.2
0.2
0.2
0.2
0.2
0.2
0.2
0.2
0.2
0.2
0.2
0.2
0.2
0.2
0.2
0.2
0.2
0.2
0.2
0.2
0.2
0.2
0.2
0.2
0.2
0.2
0.2
0.797673
0.795205
0.789826
0.781078
0.769791
0.757158
0.744074
0.731064
0.718406
0.706233
0.694608
0.683549
0.673058
0.663124
0.653729
0.644851
0.636464
0.628544
0.621062
0.613992
0.607305
0.600972
0.594962
0.589249
0.583808
0.578616
0.573654
0.568904
0.56435
0.559975
0.555766
0.551707
0.547786
0.543993
0.540316
0.536747
0.533274
0.529889
0.526584
0.523351
0.520183
0.517074
0.514016
0.511005
0.508035
0.505101
0.502199
0.499327
0.496481
0.49366
0.490862
0.488085
0.48533
0.482597
0.479887
0.4772
0.474538
0.471902
0.469293
0.466712
0.464161
0.46164
0.45915
0.456689
0.454257
0.451855
0.44948
0.447131
0.444805
0.4425
0.440213
0.437941
0.435682
0.433432
0.431187
0.428943
0.426699
0.424449
0.422189
0.419914
0.41762
0.415302
0.412954
0.410569
0.40814
0.405659
0.403119
0.400507
0.397812
0.395019
0.39211
0.389062
0.385846
0.382418
0.378724
0.374693
0.370218
0.365156
0.359289
0.352294
0.343668
0.332612
0.317871
0.297716
0.271147
0.241931
0.219265
0.207333
0.202545
0.200857
0.200288
0.200098
0.200034
0.200012
0.200004
0.200002
0.200001
0.2
0.2
0.2
0.2
0.2
0.2
0.2
0.2
0.2
0.2
0.2
0.2
0.2
0.2
0.2
0.2
0.2
0.2
0.2
0.2
0.2
0.2
0.2
0.2
0.2
0.2
0.2
0.2
0.2
0.2
0.2
0.2
0.2
0.790861
0.786531
0.779472
0.770032
0.759006
0.747152
0.735013
0.722929
0.711104
0.699652
0.688639
0.678096
0.66804
0.658473
0.649388
0.640774
0.632613
0.624887
0.617575
0.610652
0.604093
0.597872
0.591962
0.586339
0.58098
0.575868
0.570982
0.566305
0.561823
0.557519
0.553377
0.549386
0.545531
0.541804
0.538192
0.534686
0.531276
0.527954
0.524711
0.52154
0.518432
0.515381
0.51238
0.509423
0.506504
0.503619
0.500763
0.497932
0.495124
0.492336
0.489567
0.486815
0.484081
0.481365
0.478668
0.475991
0.473336
0.470705
0.468098
0.465517
0.462965
0.460442
0.457949
0.455486
0.453052
0.450648
0.448271
0.445921
0.443593
0.441287
0.438999
0.436726
0.434465
0.432212
0.429964
0.427717
0.425467
0.423211
0.420943
0.418658
0.416351
0.414017
0.41165
0.409241
0.406784
0.404269
0.401687
0.399025
0.39627
0.393405
0.390409
0.387254
0.383902
0.380309
0.376404
0.372095
0.367252
0.361683
0.355105
0.347079
0.336909
0.323495
0.305204
0.28048
0.251053
0.225231
0.210019
0.203517
0.201176
0.200388
0.200128
0.200043
0.200015
0.200005
0.200002
0.200001
0.2
0.2
0.2
0.2
0.2
0.2
0.2
0.2
0.2
0.2
0.2
0.2
0.2
0.2
0.2
0.2
0.2
0.2
0.2
0.2
0.2
0.2
0.2
0.2
0.2
0.2
0.2
0.2
0.2
0.2
0.2
0.2
0.2
0.2
0.779437
0.774287
0.766884
0.757752
0.747488
0.736596
0.725442
0.714279
0.703273
0.692533
0.682128
0.672105
0.662491
0.6533
0.644536
0.636196
0.628272
0.62075
0.613615
0.606847
0.600424
0.594322
0.58852
0.582995
0.577731
0.572707
0.567908
0.563318
0.558919
0.554697
0.550637
0.546725
0.54295
0.5393
0.535765
0.532336
0.529002
0.525756
0.522588
0.51949
0.516455
0.513475
0.510543
0.507653
0.504797
0.501971
0.499169
0.496389
0.493626
0.490879
0.488144
0.485422
0.482712
0.480016
0.477334
0.474668
0.472021
0.469393
0.466787
0.464207
0.461653
0.459127
0.456631
0.454164
0.451728
0.449322
0.446944
0.444593
0.442266
0.43996
0.437672
0.4354
0.43314
0.430887
0.428638
0.42639
0.424137
0.421877
0.419602
0.41731
0.414993
0.412646
0.410261
0.40783
0.405345
0.402796
0.400172
0.397459
0.394642
0.391702
0.388611
0.385338
0.381838
0.378055
0.373903
0.369265
0.363972
0.357772
0.35028
0.340891
0.328634
0.312021
0.289249
0.26045
0.232178
0.213432
0.204794
0.201595
0.200518
0.200167
0.200054
0.200018
0.200006
0.200002
0.200001
0.2
0.2
0.2
0.2
0.2
0.2
0.2
0.2
0.2
0.2
0.2
0.2
0.2
0.2
0.2
0.2
0.2
0.2
0.2
0.2
0.2
0.2
0.2
0.2
0.2
0.2
0.2
0.2
0.2
0.2
0.2
0.2
0.2
0.2
0.2
0.765669
0.760528
0.753518
0.745113
0.735765
0.725844
0.71563
0.705331
0.695094
0.685026
0.675204
0.665683
0.6565
0.647679
0.639233
0.631167
0.623479
0.616163
0.609207
0.602595
0.596309
0.59033
0.584638
0.579218
0.574053
0.569128
0.564426
0.559932
0.555629
0.551501
0.547534
0.543714
0.54003
0.53647
0.533024
0.529683
0.526438
0.52328
0.5202
0.51719
0.514241
0.511345
0.508496
0.505684
0.502904
0.500148
0.497413
0.494692
0.491984
0.489284
0.486591
0.483903
0.481222
0.478547
0.475882
0.473228
0.470588
0.467963
0.465358
0.462775
0.460217
0.457687
0.455186
0.452715
0.450275
0.447866
0.445487
0.443136
0.44081
0.438507
0.436222
0.433952
0.431694
0.429443
0.427196
0.424948
0.422695
0.420433
0.418155
0.415857
0.413532
0.411173
0.408772
0.406321
0.40381
0.401227
0.39856
0.395794
0.392911
0.389887
0.386691
0.383286
0.379615
0.375606
0.37116
0.36612
0.360263
0.353249
0.344548
0.333306
0.318182
0.297339
0.269808
0.239991
0.217687
0.206466
0.20215
0.200689
0.200217
0.200068
0.200021
0.200007
0.200002
0.200001
0.2
0.2
0.2
0.2
0.2
0.2
0.2
0.2
0.2
0.2
0.2
0.2
0.2
0.2
0.2
0.2
0.2
0.2
0.2
0.2
0.2
0.2
0.2
0.2
0.2
0.2
0.2
0.2
0.2
0.2
0.2
0.2
0.2
0.2
0.2
0.2
0.751399
0.746611
0.740223
0.732622
0.72416
0.715131
0.705765
0.696243
0.686703
0.677251
0.667968
0.658916
0.65014
0.64167
0.633528
0.625725
0.618266
0.611149
0.604366
0.597905
0.591751
0.58589
0.58031
0.574996
0.569936
0.565115
0.560518
0.55613
0.551933
0.547911
0.544048
0.540332
0.53675
0.533291
0.529945
0.526705
0.523561
0.520505
0.517527
0.514618
0.51177
0.508974
0.506222
0.503503
0.500812
0.49814
0.495482
0.492833
0.490189
0.487545
0.4849
0.482253
0.479605
0.476955
0.474309
0.471666
0.469032
0.46641
0.463802
0.461215
0.45865
0.456113
0.453604
0.451126
0.448681
0.446268
0.443888
0.441537
0.439213
0.436913
0.434632
0.432367
0.430113
0.427866
0.425622
0.423377
0.421125
0.418863
0.416584
0.414282
0.411951
0.409583
0.407168
0.404697
0.402159
0.399541
0.39683
0.394007
0.391051
0.387934
0.384621
0.381062
0.37719
0.372913
0.368098
0.36255
0.355962
0.347866
0.337512
0.323698
0.30466
0.278802
0.248415
0.222836
0.208624
0.202881
0.200913
0.200283
0.200087
0.200026
0.200008
0.200002
0.200001
0.2
0.2
0.2
0.2
0.2
0.2
0.2
0.2
0.2
0.2
0.2
0.2
0.2
0.2
0.2
0.2
0.2
0.2
0.2
0.2
0.2
0.2
0.2
0.2
0.2
0.2
0.2
0.2
0.2
0.2
0.2
0.2
0.2
0.2
0.2
0.2
0.2
0.737538
0.733177
0.727409
0.720543
0.712861
0.704606
0.695976
0.687133
0.678206
0.669301
0.660502
0.651875
0.643469
0.635323
0.627461
0.619903
0.612655
0.605722
0.599098
0.592774
0.58674
0.580991
0.575516
0.570306
0.565351
0.560638
0.556153
0.55188
0.5478
0.543895
0.54015
0.536549
0.53308
0.529733
0.526499
0.523371
0.520341
0.517399
0.514537
0.511746
0.509015
0.506336
0.503696
0.501088
0.498501
0.495929
0.493364
0.4908
0.488231
0.485654
0.483066
0.480467
0.477855
0.475235
0.472608
0.469977
0.467348
0.464725
0.462112
0.459516
0.456941
0.454391
0.45187
0.449382
0.446928
0.444509
0.442125
0.439774
0.437453
0.435157
0.432883
0.430623
0.428376
0.426134
0.423895
0.421654
0.419406
0.417145
0.414867
0.412564
0.410229
0.407853
0.405425
0.402936
0.400371
0.397717
0.394958
0.392073
0.389035
0.385812
0.382361
0.378619
0.374504
0.369895
0.364614
0.358396
0.350831
0.341248
0.328572
0.311152
0.287122
0.257092
0.22883
0.211343
0.203829
0.201205
0.200368
0.20011
0.200033
0.20001
0.200003
0.200001
0.2
0.2
0.2
0.2
0.2
0.2
0.2
0.2
0.2
0.2
0.2
0.2
0.2
0.2
0.2
0.2
0.2
0.2
0.2
0.2
0.2
0.2
0.2
0.2
0.2
0.2
0.2
0.2
0.2
0.2
0.2
0.2
0.2
0.2
0.2
0.2
0.2
0.2
0.724441
0.720475
0.715245
0.709
0.701971
0.694363
0.68635
0.678081
0.669678
0.661244
0.652865
0.644609
0.63653
0.62867
0.621058
0.613717
0.606657
0.599884
0.593394
0.587186
0.581256
0.575602
0.570222
0.565109
0.560256
0.555652
0.551284
0.547134
0.543182
0.539408
0.535792
0.532318
0.528974
0.52575
0.522639
0.519634
0.516729
0.513917
0.511188
0.508531
0.505937
0.503392
0.500886
0.498407
0.495945
0.493491
0.491036
0.488573
0.486096
0.483599
0.481079
0.478534
0.475967
0.473378
0.470772
0.468154
0.465528
0.4629
0.460278
0.457667
0.455075
0.452506
0.449967
0.447461
0.444993
0.442563
0.440174
0.437822
0.435504
0.433215
0.430947
0.428696
0.426456
0.424221
0.421988
0.419751
0.417507
0.41525
0.412974
0.410672
0.408334
0.405953
0.403515
0.401007
0.398416
0.395725
0.392914
0.389958
0.386827
0.38348
0.379863
0.3759
0.371483
0.36645
0.360562
0.353447
0.344516
0.332816
0.316833
0.294612
0.2656
0.235476
0.214642
0.205023
0.201576
0.200475
0.20014
0.200041
0.200012
0.200003
0.200001
0.2
0.2
0.2
0.2
0.2
0.2
0.2
0.2
0.2
0.2
0.2
0.2
0.2
0.2
0.2
0.2
0.2
0.2
0.2
0.2
0.2
0.2
0.2
0.2
0.2
0.2
0.2
0.2
0.2
0.2
0.2
0.2
0.2
0.2
0.2
0.2
0.2
0.2
0.2
0.712215
0.708583
0.703791
0.698046
0.691541
0.684455
0.676943
0.669141
0.661168
0.653124
0.645095
0.637151
0.629349
0.621732
0.614332
0.607173
0.600267
0.593619
0.587233
0.581111
0.575259
0.56968
0.564375
0.559343
0.554581
0.550082
0.545833
0.541814
0.538003
0.534374
0.530903
0.527571
0.524364
0.521274
0.518295
0.515425
0.512659
0.509991
0.507413
0.504913
0.502477
0.500092
0.497743
0.495418
0.493105
0.490793
0.488471
0.48613
0.483763
0.481362
0.478923
0.476445
0.473928
0.471376
0.468793
0.466186
0.46356
0.460924
0.458285
0.455653
0.453034
0.450436
0.447868
0.445332
0.442824
0.440358
0.437943
0.435585
0.433272
0.430991
0.428736
0.426498
0.424271
0.422049
0.419826
0.4176
0.415365
0.413117
0.410849
0.408552
0.406219
0.403837
0.401392
0.39887
0.396253
0.393523
0.390654
0.387617
0.384376
0.380881
0.377061
0.372819
0.36801
0.362418
0.355709
0.347354
0.336495
0.321762
0.301215
0.273532
0.242457
0.218455
0.206469
0.202029
0.200605
0.200176
0.20005
0.200014
0.200004
0.200001
0.2
0.2
0.2
0.2
0.2
0.2
0.2
0.2
0.2
0.2
0.2
0.2
0.2
0.2
0.2
0.2
0.2
0.2
0.2
0.2
0.2
0.2
0.2
0.2
0.2
0.2
0.2
0.2
0.2
0.2
0.2
0.2
0.2
0.2
0.2
0.2
0.2
0.2
0.2
0.2
0.700871
0.697505
0.693055
0.687695
0.681594
0.674909
0.667783
0.660343
0.652704
0.644966
0.637213
0.629518
0.621936
0.614512
0.607279
0.600257
0.59346
0.586894
0.580571
0.574499
0.568689
0.56315
0.557887
0.552909
0.548217
0.543809
0.539677
0.535799
0.532146
0.528683
0.525379
0.522207
0.519151
0.516204
0.513367
0.510641
0.508028
0.505523
0.503118
0.5008
0.498552
0.496357
0.494198
0.492058
0.489924
0.487784
0.485624
0.483434
0.481203
0.47892
0.476581
0.474183
0.471727
0.469217
0.46666
0.464062
0.461432
0.458781
0.456117
0.453451
0.450793
0.448153
0.445536
0.442928
0.440363
0.437852
0.435404
0.433022
0.430709
0.428436
0.426191
0.423964
0.421747
0.419533
0.417319
0.415102
0.412876
0.410639
0.408384
0.406101
0.403781
0.401408
0.398967
0.39644
0.393804
0.391035
0.388105
0.384977
0.381605
0.377926
0.373849
0.369245
0.363915
0.357557
0.349691
0.33954
0.325852
0.30676
0.280507
0.249213
0.222596
0.208115
0.202552
0.200755
0.200217
0.200061
0.200017
0.200005
0.200001
0.2
0.2
0.2
0.2
0.2
0.2
0.2
0.2
0.2
0.2
0.2
0.2
0.2
0.2
0.2
0.2
0.2
0.2
0.2
0.2
0.2
0.2
0.2
0.2
0.2
0.2
0.2
0.2
0.2
0.2
0.2
0.2
0.2
0.2
0.2
0.2
0.2
0.2
0.2
0.2
0.2
0.690381
0.687219
0.683022
0.677942
0.672131
0.665731
0.658878
0.651694
0.644292
0.636773
0.62922
0.621704
0.614282
0.606994
0.599871
0.592932
0.586189
0.579656
0.573346
0.567275
0.561455
0.555902
0.550629
0.545653
0.540989
0.536644
0.532617
0.528888
0.525418
0.522156
0.519051
0.516066
0.513179
0.510388
0.507699
0.505126
0.502678
0.500356
0.498153
0.496053
0.494033
0.49207
0.490142
0.48823
0.486317
0.484391
0.482435
0.480434
0.478373
0.47624
0.474025
0.471726
0.469344
0.466884
0.464355
0.461765
0.459127
0.456451
0.453751
0.451037
0.448322
0.445618
0.442897
0.440199
0.437543
0.434951
0.432442
0.430027
0.427711
0.425448
0.423216
0.421001
0.418791
0.416581
0.414368
0.412151
0.409929
0.407699
0.405456
0.403189
0.400888
0.398535
0.39611
0.393589
0.390943
0.388141
0.385146
0.381913
0.378383
0.374472
0.370061
0.364968
0.358913
0.351456
0.341882
0.329034
0.311132
0.286207
0.255177
0.226672
0.209836
0.203103
0.200912
0.200259
0.200072
0.200019
0.200005
0.200001
0.2
0.2
0.2
0.2
0.2
0.2
0.2
0.2
0.2
0.2
0.2
0.2
0.2
0.2
0.2
0.2
0.2
0.2
0.2
0.2
0.2
0.2
0.2
0.2
0.2
0.2
0.2
0.2
0.2
0.2
0.2
0.2
0.2
0.2
0.2
0.2
0.2
0.2
0.2
0.2
0.2
0.2
0.680708
0.677692
0.673667
0.668769
0.663138
0.656911
0.650217
0.643181
0.635918
0.628526
0.621091
0.613682
0.60635
0.599133
0.592056
0.585135
0.578386
0.571825
0.565466
0.559325
0.553419
0.547767
0.542395
0.537291
0.532363
0.527803
0.523826
0.52025
0.517012
0.514026
0.511201
0.508473
0.505811
0.503213
0.500701
0.498309
0.496065
0.49398
0.492047
0.490246
0.488544
0.486903
0.485294
0.483691
0.482078
0.48044
0.478759
0.477014
0.475184
0.47325
0.471202
0.469033
0.466746
0.464349
0.461853
0.459272
0.456619
0.453909
0.451157
0.448375
0.445578
0.442746
0.439889
0.437037
0.434216
0.431462
0.428821
0.426331
0.423995
0.421743
0.41953
0.417332
0.415132
0.412922
0.410704
0.408481
0.406256
0.40403
0.4018
0.399557
0.397288
0.394973
0.392586
0.390093
0.387456
0.384631
0.381572
0.378219
0.374492
0.370277
0.365407
0.359618
0.352497
0.343373
0.331157
0.314146
0.290283
0.25973
0.230064
0.21141
0.203606
0.201052
0.200296
0.200081
0.200022
0.200006
0.200001
0.2
0.2
0.2
0.2
0.2
0.2
0.2
0.2
0.2
0.2
0.2
0.2
0.2
0.2
0.2
0.2
0.2
0.2
0.2
0.2
0.2
0.2
0.2
0.2
0.2
0.2
0.2
0.2
0.2
0.2
0.2
0.2
0.2
0.2
0.2
0.2
0.2
0.2
0.2
0.2
0.2
0.2
0.2
0.671813
0.668891
0.664961
0.66015
0.654591
0.648419
0.641769
0.634769
0.627538
0.620178
0.612773
0.60539
0.598073
0.590852
0.583749
0.576777
0.569953
0.563288
0.556793
0.550481
0.544371
0.538484
0.532548
0.526457
0.520515
0.51493
0.51008
0.506759
0.503993
0.50161
0.4994
0.497225
0.495017
0.492774
0.490555
0.488447
0.486529
0.484838
0.483371
0.482098
0.48096
0.479888
0.478827
0.477744
0.476623
0.475451
0.474207
0.472866
0.471396
0.46977
0.467972
0.465997
0.46385
0.461545
0.459099
0.456531
0.45386
0.451105
0.448283
0.445408
0.442494
0.439483
0.436412
0.433294
0.430152
0.427037
0.424063
0.421378
0.419013
0.416771
0.414583
0.412405
0.410206
0.407979
0.405731
0.403478
0.401233
0.399003
0.396791
0.394591
0.39239
0.390162
0.38787
0.385463
0.382886
0.380077
0.376969
0.373481
0.369502
0.364868
0.359329
0.352484
0.343686
0.33188
0.315412
0.292218
0.262118
0.232028
0.212395
0.203942
0.20114
0.200317
0.200086
0.200023
0.200006
0.200002
0.2
0.2
0.2
0.2
0.2
0.2
0.2
0.2
0.2
0.2
0.2
0.2
0.2
0.2
0.2
0.2
0.2
0.2
0.2
0.2
0.2
0.2
0.2
0.2
0.2
0.2
0.2
0.2
0.2
0.2
0.2
0.2
0.2
0.2
0.2
0.2
0.2
0.2
0.2
0.2
0.2
0.2
0.2
0.2
0.663658
0.660782
0.656873
0.652052
0.646452
0.640213
0.633479
0.62639
0.619075
0.611642
0.604173
0.596727
0.58934
0.582036
0.574831
0.567733
0.560748
0.553878
0.547126
0.540493
0.533989
0.527131
0.519706
0.511877
0.503603
0.495454
0.488033
0.484216
0.482248
0.481106
0.480183
0.479143
0.4778
0.476138
0.474294
0.472512
0.471037
0.469969
0.469321
0.469041
0.469008
0.469051
0.469046
0.468941
0.468727
0.468401
0.467948
0.467331
0.466501
0.465413
0.464047
0.4624
0.460488
0.458337
0.455978
0.453442
0.450758
0.44795
0.445038
0.442038
0.438936
0.435666
0.432245
0.428647
0.424841
0.420853
0.416977
0.413788
0.411359
0.409133
0.407001
0.404866
0.402666
0.400386
0.398053
0.395718
0.393417
0.391172
0.388995
0.386888
0.384841
0.382824
0.380777
0.378612
0.376236
0.373552
0.37046
0.366837
0.36252
0.357257
0.350646
0.34204
0.330383
0.314034
0.290995
0.261229
0.231624
0.2123
0.203933
0.201136
0.200313
0.200084
0.200022
0.200006
0.200001
0.2
0.2
0.2
0.2
0.2
0.2
0.2
0.2
0.2
0.2
0.2
0.2
0.2
0.2
0.2
0.2
0.2
0.2
0.2
0.2
0.2
0.2
0.2
0.2
0.2
0.2
0.2
0.2
0.2
0.2
0.2
0.2
0.2
0.2
0.2
0.2
0.2
0.2
0.2
0.2
0.2
0.2
0.2
0.2
0.2
0.65618
0.653286
0.649313
0.644385
0.638647
0.632253
0.625364
0.618034
0.610405
0.60278
0.595142
0.587537
0.579994
0.572527
0.565138
0.557821
0.550566
0.543354
0.536164
0.528973
0.521362
0.512379
0.50207
0.490495
0.477407
0.464987
0.45205
0.44747
0.446857
0.448423
0.450172
0.451368
0.451548
0.450605
0.448803
0.445717
0.44455
0.44429
0.444968
0.446519
0.448698
0.450982
0.453039
0.454776
0.456232
0.457463
0.458477
0.45922
0.45959
0.459506
0.458931
0.457876
0.456383
0.454508
0.452312
0.44985
0.447169
0.444305
0.441283
0.438118
0.434734
0.431097
0.427136
0.422713
0.417567
0.411554
0.405412
0.401231
0.398568
0.396479
0.39457
0.392612
0.390446
0.388029
0.385449
0.382869
0.380385
0.378047
0.375885
0.373925
0.372177
0.370615
0.369137
0.367555
0.365686
0.363356
0.360395
0.35661
0.351735
0.345349
0.336769
0.324901
0.308116
0.284692
0.255466
0.227926
0.210754
0.203454
0.201007
0.200278
0.200074
0.20002
0.200005
0.200001
0.2
0.2
0.2
0.2
0.2
0.2
0.2
0.2
0.2
0.2
0.2
0.2
0.2
0.2
0.2
0.2
0.2
0.2
0.2
0.2
0.2
0.2
0.2
0.2
0.2
0.2
0.2
0.2
0.2
0.2
0.2
0.2
0.2
0.2
0.2
0.2
0.2
0.2
0.2
0.2
0.2
0.2
0.2
0.2
0.2
0.2
0.649336
0.646345
0.642202
0.637037
0.63101
0.624303
0.617102
0.609504
0.601653
0.593837
0.585479
0.577598
0.569815
0.562102
0.554437
0.546787
0.539111
0.531355
0.523447
0.515298
0.504865
0.491778
0.475657
0.458865
0.439644
0.425791
0.409007
0.405337
0.405611
0.410984
0.415979
0.419739
0.421401
0.420468
0.41487
0.406665
0.403311
0.403305
0.405368
0.409625
0.415816
0.422197
0.427778
0.432463
0.436532
0.440253
0.443729
0.446863
0.449406
0.451144
0.451989
0.451977
0.451208
0.449806
0.447893
0.44557
0.44292
0.439999
0.436844
0.433464
0.429742
0.425598
0.420848
0.415116
0.407504
0.39757
0.38704
0.381895
0.379029
0.377593
0.37631
0.374796
0.372663
0.369764
0.365984
0.362527
0.359555
0.356866
0.354499
0.352537
0.351087
0.350217
0.349799
0.349331
0.348438
0.34676
0.343982
0.339768
0.333648
0.324877
0.312324
0.294548
0.270758
0.243692
0.22098
0.207977
0.202599
0.200776
0.200219
0.200059
0.200016
0.200004
0.200001
0.2
0.2
0.2
0.2
0.2
0.2
0.2
0.2
0.2
0.2
0.2
0.2
0.2
0.2
0.2
0.2
0.2
0.2
0.2
0.2
0.2
0.2
0.2
0.2
0.2
0.2
0.2
0.2
0.2
0.2
0.2
0.2
0.2
0.2
0.2
0.2
0.2
0.2
0.2
0.2
0.2
0.2
0.2
0.2
0.2
0.2
0.2
0.643087
0.639917
0.635482
0.62992
0.623418
0.616203
0.608501
0.600466
0.592262
0.584086
0.575537
0.567159
0.558519
0.550453
0.542393
0.534253
0.525935
0.517315
0.508216
0.497
0.481903
0.460929
0.436551
0.418005
0.396386
0.390339
0.384969
0.343197
0.32818
0.392575
0.396306
0.399403
0.400523
0.39803
0.388254
0.374962
0.369952
0.367982
0.368457
0.372285
0.381168
0.390986
0.399132
0.4057
0.411558
0.417403
0.423534
0.429781
0.435484
0.439983
0.442992
0.444548
0.444848
0.444131
0.442618
0.440489
0.437882
0.43489
0.431564
0.427905
0.423773
0.419011
0.413273
0.405761
0.394199
0.378932
0.364045
0.358605
0.355745
0.356023
0.355648
0.354735
0.35237
0.347998
0.337983
0.331317
0.326377
0.322038
0.318203
0.315107
0.313205
0.313165
0.31522
0.317369
0.318835
0.318745
0.316428
0.311273
0.30251
0.289232
0.270945
0.24902
0.227941
0.212865
0.204933
0.201667
0.200519
0.200152
0.200043
0.200011
0.200003
0.200001
0.2
0.2
0.2
0.2
0.2
0.2
0.2
0.2
0.2
0.2
0.2
0.2
0.2
0.2
0.2
0.2
0.2
0.2
0.2
0.2
0.2
0.2
0.2
0.2
0.2
0.2
0.2
0.2
0.2
0.2
0.2
0.2
0.2
0.2
0.2
0.2
0.2
0.2
0.2
0.2
0.2
0.2
0.2
0.2
0.2
0.2
0.2
0.2
0.637394
0.63395
0.629075
0.62291
0.615683
0.607696
0.599257
0.590591
0.581871
0.573202
0.564359
0.555677
0.546714
0.537137
0.528511
0.519641
0.510322
0.50028
0.489094
0.471798
0.449048
0.416987
0.387351
0.377106
0.368804
0.242124
0.201315
0.20115
0.203355
0.21297
0.328816
0.384888
0.385938
0.381328
0.365443
0.357551
0.279491
0.209168
0.224422
0.314339
0.369947
0.376198
0.381197
0.385186
0.38928
0.394466
0.401403
0.410107
0.419285
0.427093
0.432718
0.436141
0.437681
0.437729
0.436632
0.434671
0.432054
0.428926
0.425361
0.421349
0.416766
0.411361
0.404589
0.39502
0.377884
0.359457
0.348379
0.290124
0.255108
0.332789
0.334174
0.334908
0.332611
0.325043
0.298385
0.289052
0.280481
0.271508
0.262138
0.253922
0.248865
0.250316
0.260944
0.2703
0.277338
0.280284
0.278063
0.270454
0.257891
0.242086
0.226316
0.213974
0.206372
0.202558
0.200923
0.200306
0.200095
0.200028
0.200008
0.200002
0.200001
0.2
0.2
0.2
0.2
0.2
0.2
0.2
0.2
0.2
0.2
0.2
0.2
0.2
0.2
0.2
0.2
0.2
0.2
0.2
0.2
0.2
0.2
0.2
0.2
0.2
0.2
0.2
0.2
0.2
0.2
0.2
0.2
0.2
0.2
0.2
0.2
0.2
0.2
0.2
0.2
0.2
0.2
0.2
0.2
0.2
0.2
0.2
0.2
0.2
0.632211
0.628386
0.622882
0.615826
0.607505
0.598367
0.588881
0.579351
0.569937
0.56067
0.551423
0.542306
0.532965
0.523024
0.512027
0.501991
0.490987
0.478359
0.461155
0.430955
0.402192
0.363152
0.350879
0.245289
0.201337
0.200205
0.200007
0.200004
0.200013
0.200064
0.201473
0.291412
0.366068
0.360324
0.34197
0.214151
0.2001
0.200017
0.200111
0.201683
0.30634
0.365399
0.367636
0.368415
0.369596
0.372446
0.378411
0.388963
0.402691
0.414358
0.422655
0.427832
0.430464
0.43112
0.430275
0.428309
0.425514
0.422096
0.418174
0.413724
0.408684
0.402722
0.395123
0.383498
0.358844
0.344001
0.22684
0.200194
0.20017
0.202409
0.236974
0.317818
0.314982
0.295328
0.25836
0.204728
0.200031
0.201006
0.200011
0.200034
0.200238
0.205125
0.242761
0.242674
0.24636
0.24625
0.240206
0.2303
0.219749
0.211205
0.205644
0.202593
0.201109
0.200443
0.200161
0.200053
0.200016
0.200005
0.200001
0.2
0.2
0.2
0.2
0.2
0.2
0.2
0.2
0.2
0.2
0.2
0.2
0.2
0.2
0.2
0.2
0.2
0.2
0.2
0.2
0.2
0.2
0.2
0.2
0.2
0.2
0.2
0.2
0.2
0.2
0.2
0.2
0.2
0.2
0.2
0.2
0.2
0.2
0.2
0.2
0.2
0.2
0.2
0.2
0.2
0.2
0.2
0.2
0.2
0.2
0.2
0.627494
0.623172
0.61679
0.608407
0.5984
0.587506
0.576536
0.565862
0.555575
0.545615
0.535838
0.526153
0.516215
0.505643
0.493688
0.479529
0.465168
0.446733
0.409843
0.358195
0.339283
0.31385
0.20465
0.200284
0.20001
0.200001
0.2
0.2
0.2
0.2
0.200008
0.204403
0.252122
0.334083
0.243981
0.201249
0.200006
0.2
0.2
0.200007
0.202361
0.330998
0.269109
0.239681
0.248299
0.304822
0.345214
0.38449
0.396502
0.407126
0.415498
0.421118
0.424113
0.424887
0.423894
0.421552
0.418222
0.414198
0.40971
0.404682
0.399159
0.392822
0.384976
0.371691
0.339673
0.2123
0.200079
0.2
0.2
0.20001
0.200225
0.241896
0.291765
0.247715
0.21326
0.200739
0.200002
0.200002
0.2
0.2
0.2
0.200004
0.200062
0.202944
0.228542
0.221884
0.214325
0.208173
0.204182
0.201979
0.20089
0.20039
0.20017
0.200073
0.200027
0.200009
0.200003
0.200001
0.2
0.2
0.2
0.2
0.2
0.2
0.2
0.2
0.2
0.2
0.2
0.2
0.2
0.2
0.2
0.2
0.2
0.2
0.2
0.2
0.2
0.2
0.2
0.2
0.2
0.2
0.2
0.2
0.2
0.2
0.2
0.2
0.2
0.2
0.2
0.2
0.2
0.2
0.2
0.2
0.2
0.2
0.2
0.2
0.2
0.2
0.2
0.2
0.2
0.2
0.2
0.2
0.623203
0.618279
0.610701
0.600298
0.587539
0.573774
0.560638
0.548442
0.537096
0.526355
0.515915
0.505473
0.494593
0.48275
0.469064
0.451212
0.425592
0.389455
0.321907
0.272997
0.206391
0.201533
0.200039
0.200002
0.2
0.2
0.2
0.2
0.2
0.2
0.2
0.20003
0.208055
0.304682
0.218213
0.200283
0.200001
0.2
0.2
0.2
0.225309
0.290733
0.210829
0.200489
0.20097
0.236259
0.306053
0.380813
0.3928
0.402696
0.410661
0.416082
0.418844
0.419183
0.417461
0.41408
0.409472
0.404014
0.398456
0.392372
0.385444
0.377486
0.367317
0.349741
0.306983
0.204418
0.200017
0.2
0.2
0.2
0.200001
0.210762
0.242877
0.204148
0.201026
0.200085
0.2
0.2
0.2
0.2
0.2
0.2
0.2
0.20004
0.208277
0.204918
0.202535
0.201184
0.200523
0.200225
0.200096
0.200042
0.20002
0.200011
0.200004
0.200001
0.2
0.2
0.2
0.2
0.2
0.2
0.2
0.2
0.2
0.2
0.2
0.2
0.2
0.2
0.2
0.2
0.2
0.2
0.2
0.2
0.2
0.2
0.2
0.2
0.2
0.2
0.2
0.2
0.2
0.2
0.2
0.2
0.2
0.2
0.2
0.2
0.2
0.2
0.2
0.2
0.2
0.2
0.2
0.2
0.2
0.2
0.2
0.2
0.2
0.2
0.2
0.2
0.2
0.2
0.619315
0.613757
0.604652
0.591123
0.573399
0.554113
0.537411
0.523006
0.510508
0.49903
0.487806
0.476263
0.463696
0.449165
0.431107
0.405571
0.35945
0.27768
0.214538
0.20089
0.200042
0.200015
0.2
0.2
0.2
0.2
0.2
0.2
0.2
0.2
0.2
0.200002
0.200556
0.260055
0.202444
0.200005
0.2
0.2
0.2
0.2
0.209155
0.239339
0.200521
0.200006
0.200007
0.209006
0.26668
0.378917
0.390601
0.400072
0.407563
0.412432
0.414447
0.413649
0.410117
0.403837
0.395086
0.357017
0.347146
0.338908
0.329945
0.321893
0.318947
0.308199
0.278759
0.203919
0.200018
0.2
0.2
0.2
0.2
0.202234
0.213652
0.200045
0.200006
0.200007
0.2
0.2
0.2
0.2
0.2
0.2
0.2
0.2
0.2
0.200012
0.200018
0.200005
0.200002
0.200002
0.200001
0.2
0.2
0.200002
0.200001
0.2
0.2
0.2
0.2
0.2
0.2
0.2
0.2
0.2
0.2
0.2
0.2
0.2
0.2
0.2
0.2
0.2
0.2
0.2
0.2
0.2
0.2
0.2
0.2
0.2
0.2
0.2
0.2
0.2
0.2
0.2
0.2
0.2
0.2
0.2
0.2
0.2
0.2
0.2
0.2
0.2
0.2
0.2
0.2
0.2
0.2
0.2
0.2
0.2
0.2
0.2
0.2
0.2
0.2
0.2
0.615824
0.609803
0.599097
0.580251
0.548568
0.505564
0.47013
0.440054
0.459112
0.453493
0.442149
0.429449
0.414446
0.395073
0.369022
0.327889
0.260601
0.206415
0.200132
0.200009
0.2
0.2
0.2
0.2
0.2
0.2
0.2
0.2
0.2
0.2
0.2
0.2
0.200006
0.226674
0.200251
0.2
0.2
0.2
0.2
0.2
0.202119
0.207063
0.200006
0.2
0.2
0.201329
0.289886
0.378257
0.389643
0.398597
0.405336
0.409178
0.409672
0.406442
0.398818
0.367611
0.329909
0.27997
0.210141
0.204502
0.209509
0.216795
0.278287
0.269492
0.257578
0.205221
0.20003
0.2
0.2
0.2
0.2
0.200376
0.202853
0.20003
0.2
0.2
0.2
0.2
0.2
0.2
0.2
0.2
0.2
0.2
0.2
0.2
0.2
0.2
0.2
0.2
0.2
0.2
0.2
0.2
0.2
0.2
0.2
0.2
0.2
0.2
0.2
0.2
0.2
0.2
0.2
0.2
0.2
0.2
0.2
0.2
0.2
0.2
0.2
0.2
0.2
0.2
0.2
0.2
0.2
0.2
0.2
0.2
0.2
0.2
0.2
0.2
0.2
0.2
0.2
0.2
0.2
0.2
0.2
0.2
0.2
0.2
0.2
0.2
0.2
0.2
0.2
0.2
0.2
0.2
0.2
0.2
0.2
0.2
0.2
0.2
0.612706
0.606703
0.595912
0.576714
0.544993
0.503092
0.381166
0.343066
0.348589
0.353563
0.346635
0.334536
0.336978
0.314142
0.290234
0.264776
0.202276
0.200072
0.200001
0.2
0.2
0.2
0.2
0.2
0.2
0.2
0.2
0.2
0.2
0.2
0.2
0.2
0.2
0.208817
0.200086
0.2
0.2
0.2
0.2
0.2
0.200435
0.200769
0.200001
0.2
0.2
0.200163
0.361213
0.379443
0.389868
0.397796
0.403001
0.404441
0.400941
0.391806
0.379408
0.221167
0.205944
0.201374
0.200152
0.200088
0.200171
0.200239
0.200917
0.209803
0.238949
0.207448
0.200051
0.2
0.2
0.2
0.2
0.200057
0.20048
0.200001
0.2
0.2
0.2
0.2
0.2
0.2
0.2
0.2
0.2
0.2
0.2
0.2
0.2
0.2
0.2
0.2
0.2
0.2
0.2
0.2
0.2
0.2
0.2
0.2
0.2
0.2
0.2
0.2
0.2
0.2
0.2
0.2
0.2
0.2
0.2
0.2
0.2
0.2
0.2
0.2
0.2
0.2
0.2
0.2
0.2
0.2
0.2
0.2
0.2
0.2
0.2
0.2
0.2
0.2
0.2
0.2
0.2
0.2
0.2
0.2
0.2
0.2
0.2
0.2
0.2
0.2
0.2
0.2
0.2
0.2
0.2
0.2
0.2
0.2
0.2
0.2
0.609765
0.604011
0.593778
0.575785
0.54664
0.50928
0.497829
0.216159
0.20793
0.200251
0.20497
0.240748
0.286591
0.214504
0.204745
0.200955
0.200035
0.200001
0.2
0.2
0.2
0.2
0.2
0.2
0.2
0.2
0.2
0.2
0.2
0.2
0.2
0.2
0.2
0.202352
0.200013
0.2
0.2
0.2
0.2
0.2
0.200082
0.20007
0.2
0.2
0.2
0.211164
0.365027
0.380939
0.39042
0.396441
0.398796
0.396357
0.388876
0.379479
0.235226
0.200718
0.200131
0.200019
0.200002
0.200001
0.200002
0.200003
0.200012
0.20078
0.21952
0.203275
0.200018
0.2
0.2
0.2
0.2
0.200008
0.200073
0.2
0.2
0.2
0.2
0.2
0.2
0.2
0.2
0.2
0.2
0.2
0.2
0.2
0.2
0.2
0.2
0.2
0.2
0.2
0.2
0.2
0.2
0.2
0.2
0.2
0.2
0.2
0.2
0.2
0.2
0.2
0.2
0.2
0.2