/*--------------------------------*- C++ -*----------------------------------*\
| =========                 |                                                 |
| \\      /  F ield         | OpenFOAM: The Open Source CFD Toolbox           |
|  \\    /   O peration     | Version:  1.6                                   |
|   \\  /    A nd           | Web:      www.OpenFOAM.org                      |
|    \\/     M anipulation  |                                                 |
\*---------------------------------------------------------------------------*/
FoamFile
{
    version     2.0;
    format      ascii;
    class       volScalarField;
    location    "0.1";
    object      T;
}
// * * * * * * * * * * * * * * * * * * * * * * * * * * * * * * * * * * * * * //

dimensions      [0 0 0 0 0 0 0];

internalField   nonuniform List<scalar> 
400
(
4.92816
7.55614
8.40875
8.75204
8.91819
9.00939
9.06311
9.0954
9.11391
9.12238
9.12238
9.11391
9.0954
9.06311
9.00939
8.91819
8.75204
8.40875
7.55614
4.92816
2.13603
4.63272
5.94577
6.65208
7.05247
7.29089
7.43735
7.52738
7.57961
7.60367
7.60367
7.57961
7.52738
7.43735
7.29089
7.05247
6.65208
5.94576
4.63272
2.13603
1.17267
3.00875
4.23816
5.02434
5.52504
5.84662
6.05395
6.18533
6.26298
6.2991
6.2991
6.26298
6.18533
6.05395
5.84662
5.52503
5.02433
4.23816
3.00875
1.17267
0.747899
2.06666
3.07976
3.80767
4.31484
4.66278
4.89784
5.05165
5.14446
5.18813
5.18813
5.14446
5.05165
4.89784
4.66278
4.31484
3.80767
3.07976
2.06665
0.747898
0.518863
1.48188
2.28356
2.90694
3.37174
3.70839
3.94543
4.10526
4.20368
4.25054
4.25054
4.20368
4.10526
3.94542
3.70838
3.37173
2.90694
2.28356
1.48188
0.518863
0.377508
1.09549
1.72274
2.23746
2.64108
2.94632
3.16885
3.32293
3.41956
3.46606
3.46606
3.41956
3.32292
3.16885
2.94631
2.64107
2.23746
1.72274
1.09549
0.377508
0.282626
0.827212
1.31752
1.73502
2.07482
2.34061
2.53996
2.6811
2.77105
2.81475
2.81475
2.77105
2.6811
2.53996
2.3406
2.07482
1.73502
1.31752
0.827211
0.282627
0.215479
0.633894
1.01803
1.35367
1.63444
1.85984
2.03279
2.1575
2.23805
2.27751
2.27751
2.23805
2.1575
2.03279
1.85984
1.63444
1.35367
1.01803
0.633895
0.21548
0.166263
0.490701
0.792499
1.06104
1.29028
1.47802
1.62468
1.73201
1.8021
1.83666
1.83666
1.8021
1.73201
1.62468
1.47802
1.29028
1.06104
0.7925
0.490702
0.166263
0.12929
0.382416
0.620031
0.834247
1.01988
1.17423
1.29651
1.38706
1.44672
1.4763
1.4763
1.44671
1.38706
1.29651
1.17423
1.01988
0.834248
0.620032
0.382417
0.12929
0.101002
0.299202
0.486462
0.656893
0.806241
0.931873
1.03248
1.10768
1.15757
1.18242
1.18242
1.15757
1.10768
1.03248
0.931874
0.806242
0.656895
0.486464
0.299203
0.101003
0.0790441
0.23441
0.381886
0.517045
0.636479
0.737834
0.819684
0.881304
0.922414
0.942961
0.942961
0.922414
0.881304
0.819684
0.737834
0.63648
0.517046
0.381886
0.23441
0.0790441
0.0617842
0.183369
0.299171
0.405851
0.500708
0.581743
0.647606
0.697467
0.730876
0.74762
0.74762
0.730876
0.697467
0.647606
0.581743
0.500708
0.405851
0.299171
0.183368
0.0617837
0.0480507
0.142692
0.233059
0.316624
0.391275
0.45537
0.507718
0.547518
0.574275
0.587714
0.587714
0.574276
0.547519
0.507718
0.45537
0.391275
0.316623
0.233059
0.142692
0.0480506
0.0369785
0.109859
0.179576
0.244226
0.302181
0.352128
0.393071
0.424302
0.445351
0.45594
0.455941
0.445352
0.424302
0.393071
0.352128
0.30218
0.244225
0.179575
0.109859
0.0369786
0.0279082
0.0829376
0.135648
0.184628
0.228649
0.266692
0.297964
0.321875
0.338021
0.346154
0.346154
0.338022
0.321875
0.297964
0.266692
0.228648
0.184628
0.135647
0.082937
0.027908
0.0203229
0.0604083
0.0988408
0.134607
0.16681
0.194697
0.217665
0.235259
0.247156
0.253153
0.253153
0.247156
0.235259
0.217665
0.194697
0.16681
0.134606
0.0988401
0.0604075
0.0203225
0.0138052
0.0410409
0.0671708
0.0915126
0.113458
0.132488
0.148183
0.160221
0.168368
0.172478
0.172478
0.168368
0.16022
0.148183
0.132488
0.113458
0.0915129
0.067171
0.0410408
0.013805
0.00800657
0.0238051
0.0389687
0.0531038
0.0658574
0.0769266
0.0860639
0.0930771
0.0978268
0.100224
0.100223
0.0978266
0.0930769
0.086064
0.076927
0.065858
0.0531047
0.0389696
0.0238058
0.00800687
0.00262338
0.00780049
0.0127708
0.0174055
0.0215887
0.025221
0.0282206
0.0305237
0.032084
0.0328714
0.0328714
0.0320839
0.0305236
0.0282206
0.0252212
0.0215891
0.017406
0.0127715
0.00780121
0.00262375
)
;

boundaryField
{
    left
    {
        type            fixedValue;
        value           uniform 0;
    }
    down
    {
        type            fixedValue;
        value           uniform 10;
    }
    up
    {
        type            fixedValue;
        value           uniform 0;
    }
    right
    {
        type            fixedValue;
        value           uniform 0;
    }
    frontAndBack
    {
        type            empty;
    }
}


// ************************************************************************* //
