/*--------------------------------*- C++ -*----------------------------------*\
| =========                 |                                                 |
| \\      /  F ield         | OpenFOAM: The Open Source CFD Toolbox           |
|  \\    /   O peration     | Version:  2.1.0                                 |
|   \\  /    A nd           | Web:      www.OpenFOAM.org                      |
|    \\/     M anipulation  |                                                 |
\*---------------------------------------------------------------------------*/
FoamFile
{
    version     2.0;
    format      ascii;
    class       surfaceScalarField;
    location    "4015";
    object      phi_o;
}
// * * * * * * * * * * * * * * * * * * * * * * * * * * * * * * * * * * * * * //

dimensions      [1 -2 -2 0 0 0 0];

internalField   nonuniform List<scalar> 
208750
(
0.858179
0.849811
-1.14236
1.47748
0.771014
-0.885095
1.8669
0.665036
-0.601174
2.10039
0.563772
-0.38241
2.24469
0.478692
-0.235729
2.34509
0.411165
-0.143321
2.42971
0.359189
-0.0872936
2.51603
0.320382
-0.0558814
2.61558
0.292904
-0.0436189
2.73896
0.27622
-0.0500079
2.89483
0.271194
-0.0799396
3.07511
0.276429
-0.142501
3.22948
0.280061
-0.236608
3.29745
0.263678
-0.310188
3.28399
0.232029
-0.271594
3.21512
0.197878
-0.1562
3.11871
0.166299
-0.0767431
3.01622
0.139553
-0.0383856
2.91825
0.117482
-0.0197351
2.82911
0.099371
-0.010268
2.74995
0.0845286
-0.00536588
2.68039
0.0723774
-0.00281677
2.6194
0.0624675
-0.00148185
2.56576
0.0544254
-0.000782702
2.51822
0.0479539
-0.000413638
2.47563
0.0428041
-0.000220572
2.43698
0.0387702
-0.000117084
2.40137
0.0356692
-6.27335e-05
2.36806
0.0333433
-3.39349e-05
2.33642
0.0316546
-1.81634e-05
2.30595
0.0304829
-9.91742e-06
2.27623
0.0297273
-5.22089e-06
2.24694
0.0293007
-3.00901e-06
2.21781
0.0291321
-2.10768e-06
2.18864
0.029164
-1.17038e-06
2.1593
0.029346
-4.07544e-07
2.12966
0.0296327
-9.18955e-07
2.09968
0.0299853
-8.73593e-07
2.06932
0.0303664
2.21782e-07
2.03858
0.0307376
3.97145e-07
2.00751
0.0310632
-1.12584e-07
1.9762
0.0313118
1.69384e-08
1.94475
0.0314542
5.92868e-07
1.91328
0.0314657
8.35405e-07
1.88196
0.0313272
5.9794e-07
1.85093
0.0310262
2.03495e-07
1.82037
0.0305573
3.63343e-09
1.79045
0.0299213
1.32907e-07
1.76133
0.0291248
3.69017e-07
1.73315
0.0281799
5.41998e-07
1.70605
0.0271037
7.78166e-07
1.68013
0.0259165
9.63738e-07
1.65549
0.0246418
7.82975e-07
1.63218
0.0233049
3.37201e-07
1.61025
0.0219327
1.41918e-08
1.58969
0.0205516
3.89573e-08
1.57051
0.0191868
3.08564e-07
1.55265
0.0178622
3.57695e-07
1.53604
0.0165999
-9.03901e-08
1.52062
0.0154206
-4.96712e-07
1.50628
0.0143415
-2.25964e-07
1.49291
0.0133756
3.76072e-07
1.48038
0.0125313
5.46072e-07
1.46856
0.0118136
2.84596e-07
1.45734
0.0112231
1.15133e-07
1.44659
0.0107552
1.70761e-07
1.43619
0.0104002
2.21125e-07
1.42604
0.0101447
1.80242e-07
1.41607
0.00997217
1.06139e-07
1.40621
0.00986482
2.51566e-09
1.3964
0.00980458
-1.22113e-07
1.38663
0.00977438
-1.94234e-07
1.37687
0.00975928
-1.45804e-07
1.36712
0.00974729
5.64469e-08
1.35739
0.0097295
3.57745e-07
1.34769
0.00969935
5.20533e-07
1.33803
0.00965189
2.95913e-07
1.32845
0.00958347
-1.9507e-07
1.31896
0.00949127
-4.85345e-07
1.30958
0.00937226
-3.20559e-07
1.30036
0.00922241
9.65429e-09
1.29133
0.00903702
6.96737e-08
1.28251
0.00881157
-1.61558e-07
1.27397
0.0085423
-3.26455e-07
1.26575
0.00822614
-1.85729e-07
1.25789
0.00786055
1.21425e-07
1.25044
0.00744369
2.98494e-07
1.24347
0.00697461
2.19251e-07
1.23701
0.00645317
1.94632e-09
1.23113
0.00587973
-1.47917e-07
1.22588
0.00525445
-1.22849e-07
1.2213
0.00457668
9.73159e-09
1.21746
0.00384444
7.80356e-08
1.2144
0.00305421
-2.75395e-08
1.2122
0.00220077
-2.39924e-07
1.21093
0.00127681
-3.80208e-07
1.21065
0.00027256
-3.41935e-07
1.21148
-0.000824775
-1.91725e-07
1.21351
-0.0020312
-8.26885e-08
1.21688
-0.00336603
-9.48567e-08
1.22173
-0.00485204
-1.74096e-07
1.22824
-0.00651569
-2.00697e-07
1.23663
-0.00838738
-9.2843e-08
1.24714
-0.0105016
1.3271e-07
1.26003
-0.0128964
3.56962e-07
1.27565
-0.015613
4.16662e-07
1.29434
-0.0186933
2.19927e-07
1.31652
-0.0221775
-1.50675e-07
1.34262
-0.026099
-4.62964e-07
1.3731
-0.0304779
-5.1189e-07
1.40841
-0.0353112
-3.04067e-07
1.44897
-0.0405602
-6.08588e-08
1.4951
-0.0461338
-1.70485e-08
1.54697
-0.051873
-2.06413e-07
1.60451
-0.0575389
-4.45129e-07
1.66733
-0.0628183
-5.19135e-07
1.73469
-0.0673589
-3.78326e-07
1.80555
-0.0708539
-1.53215e-07
1.87873
-0.0731807
-6.29097e-09
1.9533
-0.0745701
1.32313e-08
2.02903
-0.0757291
-2.35659e-08
2.10684
-0.0778076
-3.20506e-08
2.18899
-0.0821531
-5.41331e-09
2.27891
-0.0899234
-2.90856e-09
2.38054
-0.101626
-6.82612e-08
2.49711
-0.116565
-1.76091e-07
2.62925
-0.132141
-2.58179e-07
2.77242
-0.143171
-2.70827e-07
2.91436
-0.141944
-2.29379e-07
3.03518
-0.120816
-1.82141e-07
3.11451
-0.079334
-1.60782e-07
3.14551
-0.0309909
-1.59578e-07
3.13251
0.0129976
-1.57003e-07
3.08332
0.0491856
-1.48204e-07
3.00619
0.077138
-1.51615e-07
2.90757
0.0986224
-1.84321e-07
2.79087
0.116694
-2.34031e-07
2.65565
0.13522
-2.57806e-07
2.49918
0.156471
-2.11135e-07
2.31911
0.180076
-8.25557e-08
2.1155
0.203611
9.39317e-08
1.8919
0.223595
2.56819e-07
1.65459
0.237313
3.49919e-07
1.41054
0.244046
3.47716e-07
1.16563
0.244906
2.60358e-07
0.923731
0.2419
1.21977e-07
0.686638
0.237093
-2.59643e-08
0.454474
0.232163
-1.46608e-07
0.226186
0.228289
-2.12757e-07
0.226186
-2.07348e-07
0.779381
1.46046
-0.885033
1.3715
1.35447
-0.709186
1.76564
1.19997
-0.499098
2.01531
1.04219
-0.326937
2.17716
0.902755
-0.205922
2.29311
0.788045
-0.12701
2.3909
0.697639
-0.0783266
2.48855
0.629151
-0.051715
2.5989
0.580261
-0.0438208
2.73394
0.550622
-0.0558851
2.90007
0.540127
-0.0946642
3.07874
0.541611
-0.168451
3.2131
0.532146
-0.26394
3.26581
0.494261
-0.309681
3.24983
0.439744
-0.239156
3.18354
0.37961
-0.132829
3.09196
0.322242
-0.068301
2.99415
0.272139
-0.0355017
2.90014
0.229972
-0.018587
2.81427
0.194975
-0.0097527
2.7378
0.166113
-0.00512321
2.67048
0.1424
-0.00269672
2.61136
0.123006
-0.00142379
2.55929
0.107249
-0.000753908
2.51307
0.0945665
-0.000399832
2.4716
0.0844866
-0.000212616
2.43388
0.0766038
-0.00011328
2.39904
0.070563
-6.03858e-05
2.36637
0.0660504
-3.24483e-05
2.33525
0.0627924
-1.7627e-05
2.3052
0.0605521
-9.44054e-06
2.27581
0.0591255
-5.1356e-06
2.24677
0.0583425
-3.19526e-06
2.21784
0.0580652
-1.95582e-06
2.18882
0.058179
-6.74082e-07
2.15958
0.0585852
-5.61854e-07
2.13002
0.0591992
-6.19055e-07
2.10006
0.0599432
9.94896e-08
2.06969
0.0607411
2.51987e-07
2.0389
0.0615183
-2.41953e-07
2.00776
0.0622037
-2.1626e-07
1.97635
0.062731
4.65634e-07
1.94476
0.0630405
1.00632e-06
1.91315
0.0630818
9.00143e-07
1.88166
0.0628168
3.8801e-07
1.85046
0.0622206
3.70119e-08
1.81974
0.0612822
1.9529e-07
1.78966
0.0600036
6.01031e-07
1.76038
0.0583983
7.82672e-07
1.73207
0.0564915
7.99753e-07
1.70486
0.0543178
8.57775e-07
1.67885
0.0519195
7.89469e-07
1.65415
0.0493447
4.99717e-07
1.63081
0.0466456
1.82564e-07
1.60886
0.0438754
5.46534e-08
1.58833
0.0410873
2.11259e-07
1.56918
0.0383326
3.81311e-07
1.55138
0.0356606
1.11369e-07
1.53486
0.033117
-3.70035e-07
1.51954
0.0307426
-2.91669e-07
1.50532
0.0285714
3.52555e-07
1.49206
0.0266294
7.30195e-07
1.47966
0.0249354
5.30377e-07
1.46797
0.0235002
2.7804e-07
1.45687
0.0223244
3.03723e-07
1.44623
0.021398
3.79207e-07
1.43593
0.0207012
3.09693e-07
1.42587
0.020206
1.60437e-07
1.41596
0.0198788
-1.59253e-08
1.40615
0.0196822
-2.22514e-07
1.39637
0.0195789
-3.93093e-07
1.38661
0.0195334
-4.40224e-07
1.37685
0.0195152
-3.19542e-07
1.3671
0.0195003
-3.52384e-08
1.35736
0.0194711
2.572e-07
1.34764
0.0194152
2.63534e-07
1.33796
0.0193238
-9.26784e-08
1.32836
0.0191908
-4.42775e-07
1.31884
0.0190104
-3.79458e-07
1.30943
0.0187763
-9.19317e-09
1.30018
0.0184802
1.81885e-07
1.2911
0.0181131
-2.11539e-08
1.28224
0.0176663
-3.19187e-07
1.27365
0.0171316
-3.40372e-07
1.26538
0.016502
-9.00018e-08
1.25747
0.0157722
1.39657e-07
1.24997
0.0149388
1.50851e-07
1.24294
0.0140006
6.43286e-09
1.23644
0.012958
-1.08662e-07
1.23051
0.0118117
-8.20164e-08
1.2252
0.0105621
5.1079e-08
1.22057
0.00920831
1.5304e-07
1.21667
0.00774686
1.01179e-07
1.21355
0.00617145
-9.66593e-08
1.21128
0.00447209
-2.96278e-07
1.20992
0.00263433
-3.50862e-07
1.20956
0.000638597
-2.52069e-07
1.21027
-0.00154044
-1.2173e-07
1.21218
-0.00393432
-7.33571e-08
1.21539
-0.00658116
-1.06672e-07
1.22006
-0.00952624
-1.31377e-07
1.22637
-0.0128225
-5.99393e-08
1.23452
-0.0165311
1.26588e-07
1.24474
-0.0207215
3.61618e-07
1.25732
-0.0254708
5.12272e-07
1.27257
-0.0308625
4.47019e-07
1.29086
-0.0369833
1.44611e-07
1.3126
-0.0439178
-2.44015e-07
1.33824
-0.0517401
-4.79461e-07
1.36826
-0.0605006
-4.28808e-07
1.40316
-0.0702066
-1.92316e-07
1.44339
-0.080796
-1.79316e-08
1.48936
-0.0921028
-7.18519e-08
1.54131
-0.103819
-2.9093e-07
1.59923
-0.115464
-4.60341e-07
1.66279
-0.126374
-4.26384e-07
1.7312
-0.135763
-2.26537e-07
1.80322
-0.142875
-2.49429e-08
1.87734
-0.147298
5.44524e-08
1.95214
-0.14937
2.2158e-08
2.02695
-0.150539
-2.7856e-08
2.10249
-0.153348
-3.36404e-08
2.18122
-0.160882
-1.8048e-08
2.26721
-0.175915
-4.0116e-08
2.3656
-0.200017
-1.16242e-07
2.48153
-0.232491
-1.9965e-07
2.61822
-0.268827
-2.30679e-07
2.77365
-0.2986
-1.95152e-07
2.93549
-0.303788
-1.30818e-07
3.07666
-0.261987
-8.4231e-08
3.16286
-0.165528
-6.93553e-08
3.18949
-0.0576268
-6.72744e-08
3.1687
0.0337961
-5.88398e-08
3.11128
0.106607
-5.07416e-08
3.02767
0.160744
-6.79702e-08
2.92564
0.200658
-1.22212e-07
2.8094
0.232936
-1.89619e-07
2.6769
0.267714
-2.2118e-07
2.52279
0.31059
-1.77014e-07
2.34264
0.360223
-5.62823e-08
2.13548
0.410773
1.00198e-07
1.90562
0.453455
2.33487e-07
1.66132
0.481612
2.97643e-07
1.4114
0.493965
2.77937e-07
1.16263
0.493677
1.89827e-07
0.918924
0.485603
6.54272e-08
0.681708
0.474308
-6.04523e-08
0.4506
0.463271
-1.58268e-07
0.224082
0.454807
-2.06226e-07
0.450269
-1.90835e-07
0.673387
1.84083
-0.601
1.21701
1.73951
-0.498992
1.60785
1.58167
-0.366668
1.87588
1.40991
-0.249753
2.06245
1.24983
-0.162258
2.20271
1.11263
-0.102584
2.32242
1.00135
-0.0654125
2.43967
0.915453
-0.047097
2.56926
0.854286
-0.0471537
2.72344
0.818157
-0.0696675
2.90155
0.803835
-0.123151
3.06927
0.793849
-0.210179
3.17522
0.759623
-0.294077
3.21129
0.697717
-0.290897
3.1897
0.621323
-0.193175
3.12617
0.539413
-0.105584
3.04186
0.46149
-0.0568428
2.95198
0.39236
-0.0306598
2.86514
0.333189
-0.0164367
2.78541
0.283463
-0.00875504
2.71409
0.242078
-0.00465076
2.65108
0.207872
-0.002468
2.5956
0.179794
-0.0013117
2.5466
0.156943
-0.000696655
2.50299
0.138551
-0.000371204
2.46371
0.123961
-0.000197991
2.42784
0.112591
-0.000104834
2.39453
0.103924
-5.63497e-05
2.36311
0.0974999
-3.06472e-05
2.33301
0.0929131
-1.61599e-05
2.30377
0.0898067
-8.51959e-06
2.27502
0.087878
-5.07415e-06
2.24649
0.0868792
-3.03656e-06
2.21795
0.0866086
-1.23757e-06
2.18923
0.0868998
-3.87178e-07
2.1602
0.0876146
-5.97376e-07
2.13076
0.0886337
-6.45383e-07
2.10086
0.0898448
-2.51654e-07
2.07046
0.0911347
-1.56923e-07
2.03959
0.0923905
-3.20711e-07
2.00829
0.093503
-1.68084e-08
1.97665
0.094369
6.86793e-07
1.9448
0.0948954
1.00135e-06
1.91288
0.0950043
6.33853e-07
1.88106
0.0946373
7.58673e-08
1.84952
0.093757
3.38814e-08
1.81846
0.0923474
5.80449e-07
1.78805
0.0904116
1.0268e-06
1.75848
0.0879722
1.00071e-06
1.7299
0.085069
8.01778e-07
1.70246
0.0817561
6.0634e-07
1.67628
0.0780992
3.75544e-07
1.65145
0.0741733
2.17178e-07
1.62804
0.0700584
2.05304e-07
1.60608
0.0658365
3.00372e-07
1.58557
0.061589
4.1346e-07
1.56651
0.0573953
2.94058e-07
1.54884
0.0533311
-1.02972e-07
1.53249
0.0494662
-2.45582e-07
1.51737
0.0458622
2.11614e-07
1.50337
0.0425708
7.2307e-07
1.49037
0.0396334
6.8127e-07
1.47822
0.0370801
3.37379e-07
1.4668
0.0349273
2.37866e-07
1.45595
0.0331759
3.75595e-07
1.44553
0.0318104
4.14178e-07
1.43544
0.0307995
2.47612e-07
1.42554
0.0300989
6.4756e-10
1.41577
0.0296547
-1.92503e-07
1.40604
0.0294073
-2.64479e-07
1.39633
0.0292965
-2.54632e-07
1.38659
0.0292661
-2.48172e-07
1.37684
0.029269
-2.02568e-07
1.36707
0.0292691
-1.82335e-08
1.3573
0.0292411
1.73453e-07
1.34755
0.0291679
8.98935e-08
1.33783
0.0290388
-2.3728e-07
1.32818
0.0288466
-3.96351e-07
1.3186
0.028584
-1.59846e-07
1.30914
0.0282418
1.61695e-07
1.29981
0.0278077
1.4188e-07
1.29065
0.0272681
-1.89742e-07
1.28171
0.0266086
-4.3194e-07
1.27303
0.0258157
-3.4848e-07
1.26465
0.024878
-9.20754e-08
1.25663
0.0237872
7.09333e-08
1.24903
0.0225388
6.2927e-08
1.2419
0.0211316
-1.01827e-08
1.23529
0.019567
-3.01743e-08
1.22926
0.0178472
3.39805e-08
1.22384
0.0159742
1.27525e-07
1.21911
0.0139474
1.5334e-07
1.21509
0.011763
4.8024e-08
1.21185
0.00941255
-1.43134e-07
1.20944
0.00688178
-2.85939e-07
1.20793
0.00414972
-2.82942e-07
1.20738
0.00118763
-1.69871e-07
1.20788
-0.00204175
-6.79875e-08
1.20953
-0.00558496
-5.43769e-08
1.21245
-0.00949845
-9.84519e-08
1.21677
-0.0138495
-1.09439e-07
1.22266
-0.0187173
-1.74541e-08
1.23033
-0.0241934
1.79518e-07
1.23999
-0.0303828
4.04486e-07
1.25193
-0.0374031
5.23849e-07
1.26645
-0.0453832
4.24245e-07
1.28392
-0.0544597
1.18916e-07
1.30477
-0.0647704
-2.20024e-07
1.32948
-0.0764432
-3.7787e-07
1.35856
-0.089578
-2.84142e-07
1.39257
-0.104219
-8.41737e-08
1.43209
-0.120315
-4.95311e-09
1.47765
-0.137662
-1.39232e-07
1.52966
-0.155837
-3.65047e-07
1.58832
-0.174123
-4.75728e-07
1.6534
-0.191453
-3.78163e-07
1.72409
-0.206442
-1.61801e-07
1.7988
-0.217587
8.97126e-09
1.87527
-0.223767
4.92346e-08
1.95097
-0.225074
2.19552e-09
2.02414
-0.223707
-4.03588e-08
2.09496
-0.224165
-4.05962e-08
2.16619
-0.232111
-3.476e-08
2.24311
-0.252836
-6.961e-08
2.33313
-0.290038
-1.39529e-07
2.44519
-0.344555
-1.916e-07
2.58844
-0.412077
-1.82828e-07
2.76846
-0.478614
-1.21711e-07
2.97729
-0.512619
-5.41913e-08
3.17312
-0.457818
-1.66146e-08
3.27076
-0.263165
-7.70251e-09
3.28092
-0.0677844
-3.487e-09
3.24151
0.0732059
6.95672e-09
3.16541
0.182702
6.12181e-09
3.06759
0.258574
-3.33448e-08
2.95792
0.310328
-1.14213e-07
2.84418
0.346677
-2.00033e-07
2.71978
0.392109
-2.35868e-07
2.57242
0.457952
-1.8584e-07
2.39319
0.539453
-5.82295e-08
2.17816
0.625803
9.87184e-08
1.93378
0.697842
2.24982e-07
1.67367
0.741713
2.79008e-07
1.41111
0.756525
2.51893e-07
1.15455
0.750236
1.62448e-07
0.907629
0.732525
4.25152e-08
0.670672
0.711265
-7.55026e-08
0.442136
0.691806
-1.64629e-07
0.219544
0.6774
-2.04753e-07
0.669814
-1.82316e-07
0.572069
2.06486
-0.382119
1.05916
1.97966
-0.326717
1.43609
1.84005
-0.24964
1.71581
1.67982
-0.176581
1.92524
1.5232
-0.118591
2.09143
1.38377
-0.0777833
2.23652
1.26753
-0.0535137
2.3785
1.17687
-0.0457875
2.53313
1.11369
-0.0573714
2.70912
1.07763
-0.0954071
2.89157
1.05738
-0.167455
3.03505
1.02404
-0.259757
3.11331
0.959496
-0.306684
3.1349
0.874143
-0.246067
3.10779
0.776371
-0.145944
3.04825
0.67607
-0.0812495
2.97273
0.581675
-0.0454456
2.89281
0.497363
-0.0252068
2.81542
0.424364
-0.0137987
2.74402
0.36233
-0.00747631
2.67988
0.310241
-0.00402581
2.623
0.266913
-0.0021603
2.57275
0.231207
-0.00115817
2.52821
0.202102
-0.000621027
2.4884
0.1787
-0.000333571
2.45234
0.160196
-0.00017809
2.41917
0.145862
-9.55414e-05
2.38811
0.135034
-5.20766e-05
2.35853
0.127111
-2.74415e-05
2.32991
0.12155
-1.46049e-05
2.30184
0.117879
-8.7072e-06
2.27402
0.1157
-4.80233e-06
2.24622
0.114689
-2.2775e-06
2.21824
0.114589
-1.11208e-06
2.18995
0.115194
-1.0743e-06
2.16122
0.116339
-1.32673e-06
2.13197
0.117879
-7.50785e-07
2.10215
0.119669
-8.44957e-08
2.07172
0.121562
-2.10797e-07
2.0407
0.123406
-3.39039e-07
2.00916
0.12505
2.00183e-07
1.97718
0.126348
8.06675e-07
1.94491
0.127168
7.34051e-07
1.91251
0.127402
8.02156e-08
1.88018
0.126971
-2.76937e-07
1.84811
0.125823
2.44603e-07
1.81652
0.123938
1.04308e-06
1.78561
0.121323
1.27483e-06
1.75557
0.118009
9.84683e-07
1.72659
0.114056
5.48241e-07
1.6988
0.109538
1.2869e-07
1.67235
0.104549
-2.0882e-08
1.64733
0.099192
2.08664e-07
1.62381
0.0935791
4.8634e-07
1.60183
0.0878229
5.4681e-07
1.58138
0.0820362
4.08088e-07
1.56245
0.0763287
1.09426e-07
1.54497
0.0708036
-1.25918e-07
1.52889
0.0655556
7.94889e-08
1.51408
0.0606688
5.82427e-07
1.50044
0.0562151
7.47539e-07
1.48782
0.0522526
4.1497e-07
1.47607
0.048824
1.13374e-07
1.46505
0.045953
1.92504e-07
1.45458
0.0436413
3.91027e-07
1.44452
0.0418672
3.36866e-07
1.43474
0.0405864
2.76959e-08
1.4251
0.0397352
-2.3629e-07
1.41552
0.0392345
-2.0185e-07
1.40593
0.0389968
4.8195e-08
1.3963
0.0389339
1.75309e-07
1.3866
0.0389655
4.36039e-08
1.37684
0.0390261
-7.47905e-08
1.36704
0.0390673
5.13337e-08
1.35723
0.0390573
1.98576e-07
1.34742
0.0389772
4.28608e-08
1.33764
0.0388177
-2.71521e-07
1.32791
0.0385734
-3.12626e-07
1.31826
0.0382374
-2.79251e-08
1.3087
0.0377985
1.60974e-07
1.29927
0.0372401
-3.37377e-08
1.28999
0.0365425
-3.8811e-07
1.28092
0.0356841
-5.1e-07
1.27209
0.0346447
-3.24131e-07
1.26356
0.0334072
-6.26951e-08
1.25539
0.0319601
7.51625e-08
1.24763
0.0302979
8.7748e-08
1.24034
0.0284204
6.41612e-08
1.23357
0.0263315
6.17965e-08
1.22738
0.0240365
9.07021e-08
1.22182
0.0215401
1.23377e-07
1.21692
0.0188441
9.95205e-08
1.21274
0.0159452
-1.97069e-08
1.20932
0.0128339
-1.8119e-07
1.20671
0.00949274
-2.6708e-07
1.20496
0.00589501
-2.16899e-07
1.20415
0.00200366
-9.58053e-08
1.20434
-0.00222975
-2.18033e-08
1.20562
-0.00686586
-4.42787e-08
1.20809
-0.0119786
-1.0888e-07
1.2119
-0.0176563
-1.19999e-07
1.21719
-0.0240037
-1.67265e-08
1.22414
-0.0311425
1.89085e-07
1.23297
-0.0392134
4.08401e-07
1.24394
-0.048376
5.08529e-07
1.25737
-0.0588078
3.98926e-07
1.27361
-0.070702
1.23719e-07
1.2931
-0.0842609
-1.41155e-07
1.31634
-0.0996843
-2.24662e-07
1.34391
-0.117149
-1.18831e-07
1.37647
-0.136778
8.77117e-09
1.41474
-0.158583
-2.18897e-08
1.45947
-0.182394
-2.2512e-07
1.51138
-0.207746
-4.38242e-07
1.57099
-0.233736
-4.83262e-07
1.63841
-0.258872
-3.31025e-07
1.71294
-0.280965
-1.10031e-07
1.79262
-0.297265
2.76141e-08
1.87396
-0.305109
3.52957e-08
1.95234
-0.303453
-2.15568e-08
2.02368
-0.295049
-6.00012e-08
2.08701
-0.287494
-6.15646e-08
2.14546
-0.29056
-6.52417e-08
2.20591
-0.31328
-1.01152e-07
2.27861
-0.362743
-1.48836e-07
2.37767
-0.443615
-1.61251e-07
2.52191
-0.556311
-1.1772e-07
2.73445
-0.691159
-4.46771e-08
3.03209
-0.810258
1.33969e-08
3.36777
-0.7935
3.63198e-08
3.46614
-0.361531
3.91037e-08
3.42191
-0.0235516
4.514e-08
3.351
0.144109
5.34455e-08
3.24129
0.292422
3.70956e-08
3.11934
0.38052
-2.91193e-08
2.99426
0.435404
-1.35272e-07
2.88961
0.451334
-2.32046e-07
2.78562
0.496095
-2.62783e-07
2.65392
0.589655
-1.99187e-07
2.47954
0.713834
-6.03595e-08
2.2502
0.855145
9.82373e-08
1.97765
0.970395
2.16782e-07
1.68849
1.03087
2.60107e-07
1.40482
1.04019
2.26119e-07
1.13684
1.01822
1.36853e-07
0.886369
0.982996
2.30857e-08
0.651213
0.94642
-8.58581e-08
0.427729
0.915291
-1.65836e-07
0.211959
0.893171
-1.98392e-07
0.881773
-1.70217e-07
0.48687
2.19941
-0.235351
0.919543
2.13165
-0.205617
1.27586
2.01655
-0.162068
1.55919
1.8789
-0.118521
1.78582
1.73914
-0.0827411
1.97519
1.61078
-0.0582505
2.14586
1.50184
-0.0471047
2.31533
1.41784
-0.0522389
2.49706
1.36154
-0.079848
2.68887
1.32685
-0.138462
2.85823
1.2892
-0.226067
2.9705
1.22226
-0.299163
3.02796
1.12998
-0.281844
3.03712
1.02172
-0.185683
3.00749
0.904959
-0.106636
2.95385
0.789589
-0.0614189
2.88842
0.682134
-0.0352818
2.81981
0.585887
-0.0199616
2.75338
0.501902
-0.0111201
2.69193
0.429899
-0.00612417
2.63655
0.36897
-0.00334604
2.5873
0.317992
-0.00182071
2.54365
0.275844
-0.000988792
2.50481
0.241473
-0.00053602
2.46989
0.213905
-0.000290151
2.43801
0.192236
-0.000156399
2.40834
0.175613
-8.50397e-05
2.38018
0.163235
-4.57159e-05
2.35297
0.154355
-2.46238e-05
2.32623
0.148293
-1.43564e-05
2.29966
0.144458
-7.80451e-06
2.27301
0.142354
-3.96362e-06
2.24612
0.141589
-2.34368e-06
2.21885
0.141862
-1.61159e-06
2.19109
0.14295
-1.37128e-06
2.16276
0.144675
-7.56172e-07
2.13376
0.146877
-3.29783e-09
2.10404
0.149392
-3.45944e-08
2.07356
0.152039
-3.77854e-07
2.04235
0.154624
-1.88954e-07
2.01045
0.156944
3.78646e-07
1.978
0.158803
5.7546e-07
1.94515
0.160025
4.27899e-08
1.91208
0.160465
-5.37449e-07
1.87903
0.160021
-2.22261e-07
1.84623
0.158628
7.24488e-07
1.81391
0.15626
1.27222e-06
1.7823
0.152931
1.14474e-06
1.75162
0.148687
6.82126e-07
1.72207
0.143607
9.37462e-08
1.69381
0.137792
-2.54376e-07
1.667
0.131366
1.07557e-08
1.64172
0.124468
5.27166e-07
1.61806
0.117242
6.8148e-07
1.59604
0.109839
4.88697e-07
1.57567
0.102404
2.31193e-07
1.55692
0.0950808
-5.32782e-09
1.53973
0.0880002
-3.15949e-08
1.524
0.0812844
3.18625e-07
1.50963
0.0750422
6.73426e-07
1.49647
0.0693674
5.37828e-07
1.48439
0.0643376
9.67057e-08
1.4732
0.0600104
-6.18747e-08
1.46273
0.0564192
1.69632e-07
1.45281
0.0535681
3.34032e-07
1.44324
0.0514293
9.78062e-08
1.43388
0.0499431
-3.12051e-07
1.4246
0.0490211
-3.91692e-07
1.41528
0.0485519
7.11407e-09
1.40587
0.0484113
4.42314e-07
1.39633
0.0484758
4.25826e-07
1.38666
0.0486353
8.37153e-08
1.37688
0.0488028
-5.22386e-08
1.36703
0.0489174
1.4431e-07
1.35715
0.0489434
2.37936e-07
1.34726
0.0488657
-3.41724e-08
1.3374
0.0486816
-3.32122e-07
1.32758
0.0483922
-2.56225e-07
1.31782
0.0479939
3.56476e-08
1.30815
0.0474742
8.3367e-08
1.29857
0.0468116
-2.04619e-07
1.28914
0.0459778
-4.68885e-07
1.27988
0.0449413
-4.17897e-07
1.27085
0.0436721
-1.44891e-07
1.26211
0.0421463
9.205e-08
1.25372
0.0403483
1.83058e-07
1.24575
0.0382724
1.79872e-07
1.23825
0.035921
1.4753e-07
1.23128
0.0333025
1.13166e-07
1.22489
0.0304276
9.35852e-08
1.21912
0.0273061
8.11642e-08
1.21402
0.0239438
2.74958e-08
1.20963
0.0203399
-9.34306e-08
1.20598
0.0164852
-2.17393e-07
1.20311
0.0123603
-2.40927e-07
1.20107
0.00793387
-1.45032e-07
1.19991
0.00316142
-2.68947e-08
1.1997
-0.00201554
4.37922e-09
1.2005
-0.00767063
-6.24696e-08
1.20242
-0.0138939
-1.42523e-07
1.20555
-0.0207937
-1.38622e-07
1.21005
-0.0284986
-1.15679e-08
1.21607
-0.0371597
2.00756e-07
1.22381
-0.0469528
3.98424e-07
1.23351
-0.0580799
4.66025e-07
1.24548
-0.0707702
3.52416e-07
1.26005
-0.0852797
1.31281e-07
1.27768
-0.101887
-3.85853e-08
1.29888
-0.120884
-5.03396e-08
1.32429
-0.142558
4.28017e-08
1.35467
-0.16716
7.37473e-08
1.39093
-0.194845
-6.92426e-08
1.43412
-0.225585
-3.22088e-07
1.48539
-0.259015
-4.99971e-07
1.54586
-0.294205
-4.70457e-07
1.61632
-0.329333
-2.69039e-07
1.69664
-0.361283
-5.19549e-08
1.78477
-0.385397
4.94856e-08
1.87562
-0.395953
2.49274e-08
1.96075
-0.38858
-4.48608e-08
2.03124
-0.365541
-8.66667e-08
2.08395
-0.340201
-9.36425e-08
2.12274
-0.329356
-9.98698e-08
2.15644
-0.346982
-1.20847e-07
2.19774
-0.404038
-1.32718e-07
2.26498
-0.510851
-1.04974e-07
2.38706
-0.678393
-3.9835e-08
2.61535
-0.919453
2.75204e-08
3.04885
-1.24375
6.4264e-08
3.79974
-1.5759
6.92989e-08
3.80412
-0.511505
6.66032e-08
3.58957
0.201381
7.15399e-08
3.49932
0.244876
7.17391e-08
3.32938
0.470817
3.53084e-08
3.17422
0.541035
-5.57529e-08
3.01019
0.599433
-1.76874e-07
2.93437
0.52716
-2.68605e-07
2.87918
0.551281
-2.81842e-07
2.7781
0.690741
-1.99963e-07
2.62085
0.871082
-5.23523e-08
2.36545
1.11055
1.00713e-07
2.03812
1.29772
2.03803e-07
1.6978
1.3712
2.3236e-07
1.38285
1.35513
1.92264e-07
1.10162
1.29945
1.07074e-07
0.849793
1.23482
4.14821e-09
0.620084
1.17613
-9.19781e-08
0.40561
1.12977
-1.6075e-07
0.200561
1.09822
-1.85596e-07
1.08233
-1.53562e-07
0.419116
2.28999
-0.142935
0.804442
2.23764
-0.126707
1.13821
2.14654
-0.102418
1.41944
2.03439
-0.0777676
1.65745
1.91727
-0.0583342
1.86624
1.80775
-0.0480642
2.06186
1.71545
-0.0507937
2.25903
1.64666
-0.0724779
2.46238
1.59959
-0.121506
2.65121
1.5549
-0.201006
2.79129
1.4843
-0.283492
2.87822
1.38546
-0.299215
2.9197
1.26885
-0.219761
2.92037
1.13978
-0.131021
2.89212
1.00775
-0.0771876
2.8464
0.880539
-0.0457055
2.79217
0.76298
-0.0267051
2.73583
0.657546
-0.0153309
2.68138
0.565016
-0.00866817
2.631
0.485124
-0.00484736
2.58558
0.417086
-0.00268903
2.54515
0.3599
-0.0014845
2.50928
0.31253
-0.000815198
2.47724
0.273951
-0.000446782
2.44822
0.243168
-0.00024365
2.42139
0.219207
-0.000132621
2.39596
0.201108
-7.25489e-05
2.3713
0.187933
-3.93269e-05
2.3469
0.178777
-2.19939e-05
2.3224
0.172809
-1.2179e-05
2.29756
0.169305
-6.3275e-06
2.27225
0.167669
-3.59586e-06
2.24639
0.167448
-2.10767e-06
2.21994
0.168322
-1.14894e-06
2.19282
0.170072
-4.1253e-07
2.16496
0.172536
1.33866e-07
2.13628
0.175563
1.10997e-07
2.10669
0.178981
-2.17502e-07
2.07615
0.182579
-2.9551e-07
2.04467
0.186108
3.41752e-08
2.01231
0.189301
3.48573e-07
1.97922
0.191896
1.75251e-08
1.94559
0.193661
-6.61969e-07
1.91164
0.194413
-6.04129e-07
1.87764
0.194021
3.04849e-07
1.84386
0.192407
1.04408e-06
1.81058
0.189544
1.11701e-06
1.77805
0.185454
8.17461e-07
1.74654
0.180203
3.05436e-07
1.71625
0.173892
-1.9101e-07
1.68739
0.166656
-1.37559e-07
1.6601
0.158657
3.84157e-07
1.6345
0.15007
6.38981e-07
1.61065
0.141083
4.48537e-07
1.58861
0.131886
2.36585e-07
1.56835
0.122663
9.74451e-08
1.54984
0.11359
-5.66342e-08
1.53301
0.104833
3.23726e-08
1.51776
0.0965402
4.34462e-07
1.50395
0.0888479
6.21079e-07
1.49144
0.0818744
2.61502e-07
1.48006
0.0757197
-1.85131e-07
1.46961
0.0704609
-1.69154e-07
1.45988
0.0661449
1.43687e-07
1.45067
0.0627815
1.67774e-07
1.44176
0.0603377
-2.55213e-07
1.43296
0.0587356
-6.25259e-07
1.42413
0.0578548
-4.27121e-07
1.41514
0.0575404
1.64829e-07
1.40593
0.0576196
4.67197e-07
1.39649
0.0579214
1.9295e-07
1.38682
0.058297
-1.75975e-07
1.377
0.0586325
-1.25625e-07
1.36706
0.0588555
1.47656e-07
1.35707
0.0589323
1.14336e-07
1.34708
0.0588598
-2.32156e-07
1.33711
0.058651
-3.89822e-07
1.32718
0.0583205
-1.43605e-07
1.3173
0.0578719
1.31444e-07
1.30748
0.057293
5.92609e-08
1.29774
0.0565549
-2.18044e-07
1.2881
0.0556165
-3.04916e-07
1.27861
0.0544317
-9.29085e-08
1.26932
0.0529565
1.88188e-07
1.26031
0.0511573
3.28098e-07
1.25165
0.0490142
3.28623e-07
1.2434
0.0465223
2.77701e-07
1.23563
0.0436891
2.12779e-07
1.2284
0.0405304
1.42219e-07
1.22176
0.0370658
8.53288e-08
1.21576
0.0333132
3.62688e-08
1.21042
0.029285
-4.59977e-08
1.20577
0.0249852
-1.62565e-07
1.20185
0.0204068
-2.34196e-07
1.19868
0.0155296
-1.87234e-07
1.1963
0.0103186
-5.9269e-08
1.19474
0.00472336
2.73985e-08
1.19404
-0.00132362
-3.45517e-09
1.19428
-0.00790744
-1.07434e-07
1.19552
-0.0151327
-1.74175e-07
1.19785
-0.0231258
-1.28331e-07
1.20139
-0.0320373
2.49738e-08
1.20627
-0.0420453
2.17709e-07
1.21268
-0.0533587
3.57528e-07
1.22082
-0.066221
3.73189e-07
1.23097
-0.0809137
2.66101e-07
1.24344
-0.0977595
1.27159e-07
1.25868
-0.117123
7.13744e-08
1.2772
-0.139406
1.25346e-07
1.29968
-0.16504
1.84087e-07
1.32698
-0.194459
1.05202e-07
1.36019
-0.228054
-1.39993e-07
1.40069
-0.266086
-4.16576e-07
1.4502
-0.308523
-5.3732e-07
1.51073
-0.354738
-4.27656e-07
1.58437
-0.402971
-1.83924e-07
1.67253
-0.449437
2.11785e-08
1.77422
-0.487086
8.29968e-08
1.88299
-0.504726
2.43062e-08
1.98378
-0.489372
-6.2887e-08
2.05658
-0.438335
-1.12458e-07
2.09479
-0.378415
-1.21836e-07
2.10512
-0.339679
-1.17918e-07
2.09939
-0.341252
-1.09425e-07
2.09093
-0.395578
-8.10387e-08
2.09743
-0.517358
-2.3917e-08
2.146
-0.726956
4.30209e-08
2.29105
-1.06451
8.7718e-08
2.71671
-1.62149
9.64119e-08
4.86414
-2.64062
8.5809e-08
4.51701
-2.37671
7.96108e-08
3.63306
-0.191695
7.59828e-08
3.72526
1.79657
6.09971e-08
3.3996
1.96101
3.68618e-09
3.23262
1.36168
-1.03097e-07
2.93792
0.972546
-2.20304e-07
2.95849
0.553711
-2.85314e-07
3.01864
0.531504
-2.70436e-07
2.95844
0.777756
-1.73011e-07
2.86032
0.995251
-2.59433e-08
2.55263
1.41824
1.07511e-07
2.1116
1.73875
1.83531e-07
1.68174
1.80106
1.92986e-07
1.32717
1.7097
1.48941e-07
1.037
1.58962
7.26759e-08
0.791099
1.48072
-1.48775e-08
0.573722
1.3935
-9.52568e-08
0.374065
1.32942
-1.51682e-07
0.184675
1.28761
-1.69412e-07
1.26701
-1.35853e-07
0.366762
2.36514
-0.0870665
0.713346
2.32576
-0.0782175
1.02606
2.25616
-0.0655039
1.30232
2.16878
-0.0538407
1.54792
2.07651
-0.0476154
1.77395
1.99107
-0.051295
1.99306
1.92128
-0.0708763
2.21197
1.86848
-0.114385
2.41769
1.81772
-0.186719
2.58061
1.74262
-0.269682
2.69245
1.63758
-0.304268
2.76162
1.51349
-0.244159
2.79063
1.37468
-0.152017
2.78834
1.22944
-0.0913504
2.76491
1.08593
-0.055508
2.72884
0.949879
-0.0334032
2.68674
0.824794
-0.0197418
2.6433
0.712456
-0.0114705
2.60149
0.613396
-0.00657562
2.56297
0.527378
-0.0037294
2.52839
0.453752
-0.00209757
2.49778
0.391684
-0.00117193
2.4707
0.340264
-0.000650784
2.44646
0.298549
-0.000360478
2.42426
0.265565
-0.0001983
2.40329
0.240293
-0.000109373
2.38279
0.221671
-5.98437e-05
2.36215
0.208605
-3.25313e-05
2.34094
0.200007
-1.80244e-05
2.31889
0.194862
-9.43318e-06
2.29592
0.192284
-4.8681e-06
2.27203
0.191568
-2.75144e-06
2.24727
0.192212
-1.37435e-06
2.22168
0.193905
-4.01101e-07
2.19528
0.196479
2.12231e-08
2.16799
0.199831
-1.62709e-09
2.1397
0.203856
-1.25866e-07
2.11029
0.208391
-1.89451e-07
2.07968
0.213189
-3.24153e-08
2.04786
0.217929
3.04719e-07
2.01491
0.222255
1.64306e-07
1.98099
0.225816
-5.84051e-07
1.94634
0.228311
-8.69714e-07
1.91125
0.229506
-1.29015e-07
1.87602
0.229243
7.5553e-07
1.841
0.227433
1.014e-06
1.80649
0.224054
8.67811e-07
1.7728
0.21914
5.63512e-07
1.74023
0.212778
1.30988e-07
1.70902
0.205102
-4.22388e-08
1.67939
0.196286
2.35998e-07
1.65151
0.186534
4.22844e-07
1.62551
0.176071
2.13266e-07
1.60146
0.165134
4.88453e-08
1.57939
0.153959
1.08501e-07
1.55928
0.142771
3.40569e-08
1.54108
0.131786
-1.11456e-07
1.52472
0.121201
1.2377e-07
1.51007
0.111196
5.55301e-07
1.49698
0.101934
5.03302e-07
1.48529
0.0935617
-6.1018e-08
1.4748
0.0862059
-4.26377e-07
1.46529
0.0799687
-2.20106e-07
1.45652
0.0749178
9.69758e-08
1.44822
0.0710746
-5.7139e-08
1.44015
0.0684041
-5.77709e-07
1.43208
0.0668075
-8.21205e-07
1.42381
0.0661223
-4.72076e-07
1.41522
0.0661348
1.49976e-08
1.40624
0.066604
2.99506e-08
1.39686
0.067293
-3.47934e-07
1.38716
0.067999
-5.10503e-07
1.37722
0.0685749
-2.47289e-07
1.36714
0.0689388
-1.47747e-08
1.357
0.0690695
-1.70427e-07
1.34687
0.0689899
-4.1663e-07
1.33678
0.0687427
-2.96861e-07
1.32673
0.0683671
9.75397e-08
1.31672
0.0678804
2.94289e-07
1.30674
0.0672712
1.41431e-07
1.2968
0.066499
-3.2629e-08
1.28691
0.0655026
6.69706e-08
1.27713
0.0642125
3.40432e-07
1.26753
0.0625647
5.17408e-07
1.25817
0.0605116
5.12285e-07
1.24916