/*--------------------------------*- C++ -*----------------------------------*\
| =========                 |                                                 |
| \\      /  F ield         | OpenFOAM: The Open Source CFD Toolbox           |
|  \\    /   O peration     | Version:  2.1.0                                 |
|   \\  /    A nd           | Web:      www.OpenFOAM.org                      |
|    \\/     M anipulation  |                                                 |
\*---------------------------------------------------------------------------*/
FoamFile
{
    version     2.0;
    format      ascii;
    class       volScalarField;
    location    "4015";
    object      po;
}
// * * * * * * * * * * * * * * * * * * * * * * * * * * * * * * * * * * * * * //

dimensions      [1 -1 -2 0 0 0 0];

internalField   nonuniform List<scalar> 
75000
(
4414.22
4413.36
4411.88
4410.02
4407.92
4405.67
4403.33
4400.9
4398.38
4395.77
4393.03
4390.13
4387.06
4383.83
4380.53
4377.25
4374.03
4370.91
4367.9
4364.98
4362.15
4359.4
4356.72
4354.1
4351.53
4349.02
4346.54
4344.1
4341.7
4339.33
4337
4334.69
4332.41
4330.17
4327.95
4325.76
4323.6
4321.47
4319.37
4317.3
4315.26
4313.26
4311.28
4309.34
4307.42
4305.54
4303.69
4301.87
4300.08
4298.32
4296.58
4294.88
4293.2
4291.54
4289.91
4288.3
4286.71
4285.14
4283.59
4282.05
4280.53
4279.02
4277.53
4276.05
4274.58
4273.13
4271.68
4270.24
4268.82
4267.4
4265.99
4264.6
4263.21
4261.83
4260.47
4259.11
4257.76
4256.42
4255.1
4253.78
4252.47
4251.17
4249.88
4248.59
4247.32
4246.05
4244.8
4243.55
4242.3
4241.06
4239.83
4238.61
4237.39
4236.17
4234.95
4233.74
4232.53
4231.32
4230.11
4228.9
4227.68
4226.46
4225.23
4223.99
4222.75
4221.49
4220.21
4218.92
4217.6
4216.26
4214.88
4213.47
4212.03
4210.53
4208.98
4207.38
4205.71
4203.98
4202.17
4200.29
4198.34
4196.31
4194.2
4192.01
4189.74
4187.36
4184.86
4182.23
4179.46
4176.54
4173.51
4170.39
4167.25
4164.11
4161.03
4158.02
4155.12
4152.33
4149.67
4147.17
4144.85
4142.74
4140.84
4139.19
4137.78
4136.61
4135.69
4135
4134.55
4134.32
4413.37
4412.59
4411.22
4409.45
4407.44
4405.26
4402.97
4400.58
4398.09
4395.49
4392.76
4389.86
4386.78
4383.56
4380.3
4377.05
4373.87
4370.77
4367.78
4364.88
4362.06
4359.33
4356.66
4354.04
4351.49
4348.97
4346.5
4344.07
4341.67
4339.3
4336.97
4334.66
4332.39
4330.14
4327.92
4325.73
4323.57
4321.44
4319.34
4317.27
4315.23
4313.23
4311.25
4309.3
4307.39
4305.51
4303.66
4301.84
4300.05
4298.29
4296.56
4294.85
4293.17
4291.52
4289.89
4288.28
4286.69
4285.12
4283.57
4282.04
4280.52
4279.01
4277.52
4276.04
4274.57
4273.11
4271.67
4270.23
4268.81
4267.39
4265.98
4264.59
4263.2
4261.82
4260.46
4259.1
4257.75
4256.41
4255.09
4253.77
4252.46
4251.16
4249.87
4248.58
4247.31
4246.05
4244.79
4243.54
4242.3
4241.06
4239.83
4238.6
4237.38
4236.17
4234.95
4233.74
4232.53
4231.32
4230.11
4228.9
4227.68
4226.46
4225.24
4224
4222.76
4221.5
4220.23
4218.94
4217.62
4216.29
4214.92
4213.52
4212.07
4210.58
4209.04
4207.44
4205.78
4204.05
4202.24
4200.37
4198.42
4196.39
4194.29
4192.1
4189.84
4187.47
4184.99
4182.37
4179.6
4176.66
4173.59
4170.42
4167.23
4164.07
4160.95
4157.93
4155
4152.19
4149.51
4146.99
4144.65
4142.51
4140.61
4138.95
4137.53
4136.37
4135.45
4134.77
4134.32
4134.1
4411.91
4411.24
4410.02
4408.41
4406.54
4404.47
4402.27
4399.95
4397.51
4394.94
4392.22
4389.31
4386.25
4383.07
4379.86
4376.67
4373.54
4370.5
4367.55
4364.68
4361.9
4359.18
4356.53
4353.94
4351.39
4348.89
4346.42
4344
4341.6
4339.24
4336.91
4334.6
4332.33
4330.08
4327.86
4325.67
4323.51
4321.38
4319.28
4317.21
4315.17
4313.16
4311.19
4309.24
4307.33
4305.45
4303.6
4301.78
4299.99
4298.23
4296.5
4294.8
4293.12
4291.47
4289.85
4288.24
4286.65
4285.09
4283.54
4282.01
4280.49
4278.98
4277.49
4276.02
4274.55
4273.09
4271.65
4270.21
4268.79
4267.37
4265.97
4264.57
4263.18
4261.81
4260.44
4259.08
4257.73
4256.4
4255.07
4253.75
4252.44
4251.14
4249.85
4248.57
4247.29
4246.03
4244.77
4243.52
4242.28
4241.05
4239.82
4238.59
4237.37
4236.16
4234.95
4233.74
4232.53
4231.32
4230.12
4228.91
4227.69
4226.48
4225.25
4224.02
4222.78
4221.53
4220.27
4218.98
4217.68
4216.35
4214.99
4213.6
4212.16
4210.69
4209.16
4207.57
4205.91
4204.19
4202.39
4200.52
4198.57
4196.54
4194.45
4192.28
4190.04
4187.7
4185.26
4182.67
4179.9
4176.92
4173.75
4170.48
4167.2
4163.96
4160.79
4157.73
4154.77
4151.92
4149.2
4146.63
4144.24
4142.06
4140.13
4138.45
4137.04
4135.89
4134.98
4134.31
4133.87
4133.65
4410.07
4409.5
4408.44
4407
4405.29
4403.36
4401.27
4399.03
4396.65
4394.12
4391.41
4388.52
4385.49
4382.37
4379.24
4376.13
4373.08
4370.11
4367.22
4364.4
4361.66
4358.98
4356.35
4353.78
4351.25
4348.76
4346.31
4343.89
4341.5
4339.15
4336.82
4334.51
4332.24
4329.99
4327.78
4325.59
4323.42
4321.29
4319.19
4317.12
4315.08
4313.07
4311.09
4309.15
4307.23
4305.35
4303.51
4301.69
4299.9
4298.15
4296.42
4294.72
4293.05
4291.4
4289.78
4288.18
4286.6
4285.03
4283.49
4281.96
4280.45
4278.95
4277.46
4275.98
4274.52
4273.06
4271.62
4270.18
4268.76
4267.34
4265.94
4264.54
4263.15
4261.78
4260.41
4259.05
4257.7
4256.37
4255.04
4253.72
4252.41
4251.11
4249.82
4248.54
4247.27
4246.01
4244.75
4243.5
4242.26
4241.03
4239.8
4238.58
4237.36
4236.15
4234.94
4233.73
4232.53
4231.33
4230.12
4228.92
4227.71
4226.5
4225.28
4224.05
4222.82
4221.58
4220.32
4219.05
4217.75
4216.44
4215.09
4213.72
4212.3
4210.84
4209.33
4207.76
4206.12
4204.41
4202.62
4200.74
4198.79
4196.77
4194.68
4192.53
4190.33
4188.05
4185.67
4183.15
4180.41
4177.38
4174.01
4170.55
4167.13
4163.78
4160.53
4157.42
4154.42
4151.53
4148.75
4146.09
4143.61
4141.36
4139.38
4137.7
4136.29
4135.15
4134.27
4133.62
4133.19
4132.98
4408
4407.52
4406.6
4405.32
4403.76
4401.98
4400
4397.86
4395.54
4393.04
4390.35
4387.5
4384.53
4381.5
4378.46
4375.45
4372.5
4369.61
4366.79
4364.04
4361.35
4358.71
4356.12
4353.58
4351.07
4348.6
4346.17
4343.76
4341.38
4339.02
4336.7
4334.4
4332.13
4329.88
4327.66
4325.47
4323.31
4321.17
4319.07
4317
4314.95
4312.94
4310.96
4309.02
4307.11
4305.23
4303.38
4301.57
4299.79
4298.03
4296.31
4294.62
4292.95
4291.31
4289.69
4288.1
4286.52
4284.96
4283.42
4281.9
4280.39
4278.89
4277.41
4275.94
4274.47
4273.02
4271.58
4270.14
4268.72
4267.3
4265.9
4264.5
4263.11
4261.74
4260.37
4259.01
4257.67
4256.33
4255
4253.68
4252.37
4251.08
4249.79
4248.51
4247.24
4245.97
4244.72
4243.47
4242.24
4241.01
4239.78
4238.56
4237.35
4236.14
4234.93
4233.73
4232.53
4231.33
4230.13
4228.93
4227.72
4226.52
4225.31
4224.09
4222.87
4221.64
4220.39
4219.13
4217.85
4216.55
4215.23
4213.87
4212.48
4211.05
4209.56
4208.02
4206.4
4204.71
4202.92
4201.05
4199.08
4197.05
4194.97
4192.85
4190.69
4188.49
4186.23
4183.84
4181.22
4178.18
4174.38
4170.57
4166.98
4163.48
4160.15
4156.98
4153.97
4151.04
4148.16
4145.38
4142.76
4140.39
4138.35
4136.66
4135.27
4134.17
4133.32
4132.7
4132.3
4132.1
4405.8
4405.39
4404.58
4403.44
4402.02
4400.37
4398.5
4396.44
4394.18
4391.72
4389.07
4386.27
4383.4
4380.48
4377.56
4374.66
4371.82
4369.03
4366.29
4363.61
4360.98
4358.39
4355.85
4353.34
4350.86
4348.41
4345.99
4343.59
4341.22
4338.88
4336.55
4334.26
4331.98
4329.74
4327.52
4325.32
4323.16
4321.02
4318.92
4316.84
4314.8
4312.78
4310.8
4308.86
4306.95
4305.07
4303.23
4301.42
4299.64
4297.89
4296.17
4294.49
4292.83
4291.19
4289.58
4287.99
4286.42
4284.87
4283.34
4281.82
4280.32
4278.83
4277.35
4275.88
4274.42
4272.97
4271.53
4270.09
4268.67
4267.25
4265.85
4264.45
4263.07
4261.69
4260.32
4258.96
4257.62
4256.28
4254.95
4253.64
4252.33
4251.03
4249.74
4248.46
4247.19
4245.93
4244.68
4243.44
4242.2
4240.97
4239.75
4238.54
4237.33
4236.12
4234.92
4233.72
4232.52
4231.33
4230.14
4228.94
4227.75
4226.55
4225.35
4224.14
4222.93
4221.71
4220.48
4219.23
4217.97
4216.7
4215.4
4214.07
4212.71
4211.31
4209.86
4208.35
4206.76
4205.09
4203.32
4201.43
4199.45
4197.39
4195.3
4193.19
4191.09
4189
4186.91
4184.76
4182.47
4179.75
4174.89
4170.37
4166.74
4163.01
4159.61
4156.38
4153.44
4150.48
4147.47
4144.51
4141.65
4139.09
4136.98
4135.3
4133.97
4132.94
4132.15
4131.57
4131.2
4131.01
4403.51
4403.15
4402.43
4401.41
4400.11
4398.56
4396.78
4394.79
4392.58
4390.16
4387.58
4384.89
4382.13
4379.34
4376.55
4373.78
4371.05
4368.37
4365.72
4363.12
4360.56
4358.03
4355.53
4353.06
4350.62
4348.19
4345.79
4343.41
4341.04
4338.7
4336.38
4334.09
4331.82
4329.57
4327.35
4325.15
4322.98
4320.84
4318.73
4316.65
4314.61
4312.59
4310.61
4308.66
4306.75
4304.88
4303.04
4301.23
4299.46
4297.72
4296.01
4294.33
4292.68
4291.05
4289.45
4287.87
4286.31
4284.77
4283.25
4281.74
4280.24
4278.75
4277.28
4275.81
4274.36
4272.91
4271.47
4270.04
4268.61
4267.2
4265.79
4264.39
4263.01
4261.63
4260.26
4258.91
4257.56
4256.22
4254.89
4253.58
4252.27
4250.97
4249.69
4248.41
4247.14
4245.88
4244.64
4243.4
4242.16
4240.94
4239.72
4238.51
4237.3
4236.1
4234.9
4233.71
4232.52
4231.33
4230.14
4228.96
4227.77
4226.58
4225.39
4224.19
4222.99
4221.79
4220.57
4219.35
4218.11
4216.86
4215.59
4214.3
4212.98
4211.62
4210.21
4208.75
4207.21
4205.58
4203.82
4201.92
4199.89
4197.77
4195.64
4193.53
4191.49
4189.52
4187.63
4185.82
4184.09
4182.39
4177.26
4170.56
4164.94
4161.05
4158.25
4155.41
4152.89
4149.95
4146.69
4143.51
4140.23
4137.36
4135.18
4133.59
4132.38
4131.46
4130.75
4130.24
4129.91
4129.75
4401.15
4400.82
4400.18
4399.24
4398.03
4396.57
4394.86
4392.92
4390.76
4388.42
4385.94
4383.38
4380.75
4378.11
4375.46
4372.83
4370.23
4367.66
4365.11
4362.6
4360.11
4357.64
4355.19
4352.76
4350.35
4347.95
4345.57
4343.2
4340.84
4338.51
4336.19
4333.9
4331.62
4329.38
4327.15
4324.95
4322.78
4320.64
4318.52
4316.44
4314.38
4312.37
4310.38
4308.43
4306.52
4304.65
4302.81
4301.01
4299.24
4297.51
4295.81
4294.14
4292.5
4290.89
4289.3
4287.73
4286.18
4284.65
4283.13
4281.63
4280.14
4278.67
4277.2
4275.74
4274.29
4272.84
4271.4
4269.97
4268.55
4267.13
4265.72
4264.33
4262.94
4261.56
4260.19
4258.84
4257.49
4256.15
4254.83
4253.51
4252.2
4250.91
4249.62
4248.35
4247.08
4245.83
4244.58
4243.34
4242.11
4240.89
4239.68
4238.47
4237.27
4236.08
4234.88
4233.7
4232.51
4231.33
4230.15
4228.97
4227.79
4226.61
4225.43
4224.25
4223.07
4221.88
4220.68
4219.48
4218.27
4217.05
4215.81
4214.55
4213.28
4211.97
4210.63
4209.23
4207.76
4206.19
4204.47
4202.55
4200.41
4198.17
4195.95
4193.82
4191.81
4189.96
4188.28
4186.81
4185.55
4184.12
4178.51
4169.86
4163.18
4158.66
4155.07
4151.99
4149.29
4146.46
4144.51
4141.62
4138.26
4134.8
4132.8
4131.5
4130.52
4129.75
4129.16
4128.74
4128.45
4128.31
4398.71
4398.41
4397.81
4396.94
4395.8
4394.39
4392.74
4390.85
4388.77
4386.54
4384.19
4381.77
4379.3
4376.81
4374.32
4371.83
4369.36
4366.9
4364.46
4362.04
4359.63
4357.23
4354.84
4352.45
4350.07
4347.7
4345.33
4342.97
4340.63
4338.29
4335.98
4333.68
4331.41
4329.16
4326.93
4324.73
4322.55
4320.4
4318.28
4316.19
4314.13
4312.11
4310.12
4308.17
4306.26
4304.39
4302.55
4300.76
4299
4297.27
4295.58
4293.93
4292.3
4290.7
4289.12
4287.56
4286.03
4284.51
4283.01
4281.52
4280.04
4278.57
4277.11
4275.66
4274.21
4272.76
4271.33
4269.9
4268.47
4267.05
4265.65
4264.25
4262.86
4261.48
4260.11
4258.76
4257.41
4256.07
4254.75
4253.43
4252.13
4250.83
4249.55
4248.28
4247.01
4245.76
4244.52
4243.28
4242.06
4240.84
4239.63
4238.43
4237.24
4236.05
4234.86
4233.68
4232.5
4231.33
4230.16
4228.99
4227.82
4226.65
4225.48
4224.31
4223.14
4221.97
4220.8
4219.62
4218.43
4217.24
4216.04
4214.83
4213.61
4212.36
4211.09
4209.78
4208.41
4206.94
4205.31
4203.4
4201.03
4198.54
4196.17
4193.98
4191.97
4190.22
4188.72
4187.52
4186.63
4185.12
4177.44
4167.19
4159.27
4153.15
4148.42
4144.87
4142.31
4140.42
4139.58
4136.93
4132.79
4130.51
4129.81
4129.09
4128.43
4127.87
4127.42
4127.08
4126.86
4126.74
4396.17
4395.89
4395.33
4394.49
4393.39
4392.03
4390.43
4388.62
4386.65
4384.56
4382.37
4380.11
4377.81
4375.48
4373.15
4370.81
4368.47
4366.13
4363.8
4361.47
4359.14
4356.81
4354.47
4352.13
4349.78
4347.44
4345.09
4342.74
4340.39
4338.06
4335.75
4333.45
4331.17
4328.91
4326.68
4324.47
4322.29
4320.13
4318
4315.9
4313.84
4311.81
4309.82
4307.86
4305.95
4304.08
4302.25
4300.47
4298.72
4297
4295.33
4293.68
4292.07
4290.48
4288.92
4287.38
4285.86
4284.36
4282.87
4281.39
4279.93
4278.47
4277.01
4275.57
4274.12
4272.68
4271.25
4269.82
4268.39
4266.97
4265.56
4264.16
4262.77
4261.39
4260.02
4258.67
4257.32
4255.99
4254.66
4253.35
4252.04
4250.75
4249.46
4248.19
4246.93
4245.68
4244.44
4243.21
4241.99
4240.78
4239.58
4238.39
4237.2
4236.01
4234.83
4233.66
4232.49
4231.33
4230.16
4229
4227.84
4226.69
4225.53
4224.38
4223.22
4222.07
4220.91
4219.76
4218.61
4217.45
4216.29
4215.13
4213.96
4212.79
4211.6
4210.39
4209.15
4207.86
4206.45
4204.73
4201.92
4198.92
4196.22
4193.95
4191.88
4190.21
4188.88
4187.88
4187.23
4182.5
4172.15
4162.21
4153.54
4146.27
4140.56
4136.78
4134.67
4133.32
4132.01
4129.42
4126.48
4127.03
4126.94
4126.62
4126.24
4125.87
4125.56
4125.31
4125.15
4125.06
4393.52
4393.24
4392.69
4391.88
4390.81
4389.49
4387.98
4386.29
4384.46
4382.52
4380.5
4378.42
4376.29
4374.13
4371.96
4369.76
4367.56
4365.35
4363.13
4360.89
4358.65
4356.39
4354.11
4351.81
4349.5
4347.18
4344.84
4342.49
4340.15
4337.82
4335.49
4333.19
4330.91
4328.65
4326.41
4324.2
4322.01
4319.84
4317.7
4315.59
4313.51
4311.47
4309.47
4307.52
4305.61
4303.74
4301.92
4300.13
4298.4
4296.7
4295.03
4293.41
4291.81
4290.24
4288.7
4287.18
4285.68
4284.19
4282.72
4281.26
4279.81
4278.36
4276.91
4275.47
4274.04
4272.6
4271.16
4269.73
4268.3
4266.88
4265.46
4264.06
4262.67
4261.29
4259.92
4258.57
4257.22
4255.89
4254.56
4253.25
4251.94
4250.65
4249.37
4248.1
4246.84
4245.59
4244.36
4243.14
4241.92
4240.72
4239.52
4238.33
4237.15
4235.97
4234.8
4233.64
4232.48
4231.32
4230.16
4229.01
4227.87
4226.72
4225.58
4224.44
4223.3
4222.17
4221.03
4219.9
4218.78
4217.66
4216.54
4215.43
4214.32
4213.22
4212.12
4211.03
4209.95
4208.89
4207.87
4206.9
4204.16
4200.29
4196.46
4193.24
4191.01
4189.75
4188.69
4187.88
4187.26
4178.55
4166.45
4155.95
4146.4
4137.81
4130.79
4127
4126.26
4126.18
4125.72
4124.16
4123.21
4124.25
4124.31
4124.22
4124.04
4123.83
4123.63
4123.47
4123.35
4123.29
4390.71
4390.43
4389.89
4389.1
4388.08
4386.85
4385.45
4383.9
4382.23
4380.46
4378.62
4376.72
4374.77
4372.78
4370.77
4368.73
4366.66
4364.57
4362.47
4360.33
4358.17
4355.98
4353.77
4351.52
4349.23
4346.93
4344.6
4342.25
4339.9
4337.56
4335.23
4332.91
4330.62
4328.36
4326.12
4323.9
4321.7
4319.52
4317.36
4315.24
4313.15
4311.1
4309.09
4307.13
4305.22
4303.35
4301.53
4299.76
4298.04
4296.35
4294.71
4293.1
4291.53
4289.98
4288.46
4286.96
4285.48
4284.01
4282.56
4281.12
4279.68
4278.24
4276.81
4275.38
4273.95
4272.51
4271.08
4269.64
4268.21
4266.78
4265.36
4263.95
4262.56
4261.18
4259.81
4258.46
4257.11
4255.78
4254.45
4253.14
4251.83
4250.54
4249.26
4247.99
4246.74
4245.49
4244.26
4243.05
4241.84
4240.64
4239.45
4238.27
4237.1
4235.93
4234.77
4233.61
4232.46
4231.31
4230.16
4229.02
4227.88
4226.75
4225.62
4224.5
4223.38
4222.26
4221.15
4220.05
4218.95
4217.86
4216.79
4215.72
4214.67
4213.65
4212.64
4211.67
4210.73
4209.87
4209.13
4208.59
4205.13
4200.11
4196.33
4192.78
4189.99
4187.76
4185.63
4183.21
4179.33
4169.59
4159.14
4148.73
4138.32
4127.8
4117.79
4114.18
4117.2
4119.41
4120.53
4120.31
4120.53
4121.58
4121.83
4121.9
4121.86
4121.78
4121.67
4121.58
4121.5
4121.47
4387.72
4387.45
4386.93
4386.2
4385.26
4384.15
4382.89
4381.5
4380
4378.42
4376.76
4375.04
4373.27
4371.45
4369.59
4367.7
4365.78
4363.82
4361.83
4359.8
4357.73
4355.61
4353.45
4351.25
4348.99
4346.7
4344.37
4342.01
4339.65
4337.28
4334.94
4332.61
4330.32
4328.05
4325.8
4323.58
4321.37
4319.17
4317
4314.85
4312.74
4310.68
4308.66
4306.69
4304.78
4302.92
4301.11
4299.35
4297.63
4295.97
4294.35
4292.76
4291.21
4289.69
4288.2
4286.72
4285.27
4283.82
4282.39
4280.97
4279.55
4278.13
4276.71
4275.29
4273.86
4272.43
4270.99
4269.55
4268.1
4266.67
4265.24
4263.83
4262.43
4261.05
4259.69
4258.33
4256.99
4255.66
4254.34
4253.02
4251.72
4250.42
4249.14
4247.87
4246.62
4245.38
4244.16
4242.95
4241.75
4240.56
4239.38
4238.2
4237.04
4235.88
4234.73
4233.58
4232.43
4231.29
4230.16
4229.03
4227.9
4226.78
4225.66
4224.55
4223.45
4222.35
4221.26
4220.18
4219.11
4218.06
4217.02
4216
4215.01
4214.05
4213.13
4212.26
4211.45
4210.73
4210.14
4209.72
4206.63
4200.89
4195.98
4191.54
4187.55
4183.8
4179.93
4175.48
4169.65
4161.35
4151.8
4141.52
4130.35
4117.27
4106.44
4104.26
4108.96
4113.72
4116.75
4118
4118.58
4119.24
4119.54
4119.69
4119.74
4119.74
4119.7
4119.66
4119.62
4119.6
4384.6
4384.36
4383.9
4383.24
4382.41
4381.44
4380.33
4379.11
4377.8
4376.4
4374.92
4373.39
4371.79
4370.15
4368.45
4366.71
4364.93
4363.1
4361.23
4359.3
4357.32
4355.29
4353.19
4351.02
4348.8
4346.51
4344.17
4341.79
4339.39
4337
4334.62
4332.28
4329.98
4327.71
4325.47
4323.24
4321.02
4318.8
4316.6
4314.43
4312.29
4310.21
4308.18
4306.21
4304.29
4302.43
4300.63
4298.88
4297.19
4295.54
4293.94
4292.39
4290.87
4289.38
4287.91
4286.47
4285.04
4283.62
4282.21
4280.81
4279.41
4278.01
4276.61
4275.2
4273.78
4272.35
4270.9
4269.45
4268
4266.55
4265.11
4263.69
4262.29
4260.91
4259.55
4258.2
4256.86
4255.53
4254.21
4252.89
4251.58
4250.29
4249
4247.74
4246.49
4245.26
4244.04
4242.84
4241.65
4240.47
4239.29
4238.13
4236.97
4235.82
4234.68
4233.54
4232.4
4231.27
4230.15
4229.03
4227.91
4226.8
4225.7
4224.6
4223.51
4222.43
4221.36
4220.3
4219.26
4218.23
4217.23
4216.25
4215.31
4214.42
4213.57
4212.78
4212.07
4211.46
4210.94
4210.5
4207.11
4200.85
4195.15
4189.86
4184.87
4179.95
4174.83
4169.13
4162.42
4154.35
4145.2
4135.18
4124.29
4112.17
4104.5
4103.52
4105.18
4109.78
4113.97
4116.21
4116.74
4117.13
4117.4
4117.58
4117.68
4117.72
4117.74
4117.73
4117.72
4117.72
4381.43
4381.23
4380.84
4380.28
4379.58
4378.75
4377.81
4376.77
4375.63
4374.42
4373.13
4371.78
4370.36
4368.89
4367.35
4365.77
4364.12
4362.43
4360.67
4358.86
4356.97
4355.02
4352.99
4350.87
4348.66
4346.37
4344
4341.58
4339.13
4336.69
4334.28
4331.92
4329.61
4327.35
4325.12
4322.9
4320.67
4318.42
4316.18
4313.97
4311.8
4309.69
4307.64
4305.66
4303.74
4301.89
4300.09
4298.36
4296.69
4295.07
4293.5
4291.98
4290.49
4289.04
4287.61
4286.19
4284.8
4283.41
4282.03
4280.65
4279.28
4277.9
4276.52
4275.12
4273.71
4272.28
4270.83
4269.36
4267.89
4266.42
4264.96
4263.53
4262.12
4260.75
4259.4
4258.06
4256.73
4255.4
4254.08
4252.76
4251.44
4250.14
4248.85
4247.59
4246.34
4245.11
4243.91
4242.71
4241.53
4240.36
4239.2
4238.05
4236.9
4235.76
4234.63
4233.5
4232.37
4231.25
4230.13
4229.02
4227.92
4226.82
4225.73
4224.64
4223.57
4222.5
4221.45
4220.41
4219.38
4218.38
4217.41
4216.47
4215.58
4214.73
4213.94
4213.23
4212.61
4212.08
4211.63
4211.07
4207.16
4200.25
4193.89
4187.9
4182.11
4176.31
4170.29
4163.8
4156.57
4148.43
4139.45
4129.74
4119.45
4109
4103.3
4102.74
4102.5
4106.23
4111.54
4114.46
4114.9
4115.13
4115.36
4115.54
4115.67
4115.74
4115.79
4115.81
4115.82
4115.83
4378.28
4378.11
4377.8
4377.35
4376.78
4376.11
4375.34
4374.47
4373.53
4372.5
4371.4
4370.23
4368.99
4367.68
4366.31
4364.87
4363.37
4361.81
4360.18
4358.48
4356.7
4354.83
4352.87
4350.8
4348.61
4346.3
4343.89
4341.39
4338.86
4336.35
4333.88
4331.5
4329.2
4326.97
4324.77
4322.56
4320.32
4318.04
4315.74
4313.46
4311.24
4309.1
4307.04
4305.05
4303.14
4301.29
4299.5
4297.78
4296.13
4294.55
4293.01
4291.53
4290.09
4288.67
4287.28
4285.91
4284.55
4283.19
4281.84
4280.49
4279.15
4277.79
4276.43
4275.06
4273.66
4272.23
4270.77
4269.28
4267.77
4266.27
4264.78
4263.34
4261.93
4260.57
4259.23
4257.91
4256.59
4255.26
4253.94
4252.61
4251.29
4249.98
4248.68
4247.41
4246.17
4244.96
4243.76
4242.58
4241.41
4240.25
4239.1
4237.96
4236.83
4235.7
4234.57
4233.45
4232.33
4231.22
4230.11
4229.01
4227.92
4226.83
4225.75
4224.68
4223.61
4222.56
4221.52
4220.5
4219.49
4218.51
4217.56
4216.65
4215.79
4214.98
4214.25
4213.6
4213.04
4212.6
4212.25
4211.4
4206.5
4199.08
4192.27
4185.75
4179.34
4172.89
4166.24
4159.2
4151.61
4143.37
4134.44
4124.86
4114.77
4105.52
4101.96
4101.95
4101.79
4104.42
4109.37
4111.99
4112.94
4113.15
4113.37
4113.56
4113.7
4113.8
4113.87
4113.91
4113.93
4113.94
4375.18
4375.05
4374.82
4374.48
4374.05
4373.53
4372.93
4372.25
4371.49
4370.65
4369.73
4368.74
4367.67
4366.53
4365.32
4364.04
4362.68
4361.26
4359.76
4358.18
4356.51
4354.74
4352.86
4350.85
4348.68
4346.34
4343.86
4341.25
4338.58
4335.95
4333.4
4330.99
4328.72
4326.55
4324.42
4322.26
4320.02
4317.68
4315.28
4312.89
4310.6
4308.43
4306.36
4304.38
4302.47
4300.62
4298.84
4297.14
4295.51
4293.97
4292.48
4291.05
4289.65
4288.29
4286.94
4285.61
4284.29
4282.97
4281.65
4280.34
4279.02
4277.7
4276.36
4275.02
4273.64
4272.22
4270.74
4269.22
4267.66
4266.1
4264.57
4263.1
4261.7
4260.36
4259.05
4257.75
4256.45
4255.13
4253.8
4252.47
4251.12
4249.79
4248.49
4247.22
4245.98
4244.78
4243.59
4242.43
4241.28
4240.13
4239
4237.87
4236.74
4235.63
4234.51
4233.4
4232.29
4231.19
4230.09
4229
4227.91
4226.83
4225.76
4224.7
4223.65
4222.61
4221.58
4220.57
4219.57
4218.6
4217.67
4216.78
4215.94
4215.17
4214.47
4213.86
4213.37
4212.99
4212.74
4210.32
4204.23
4197.32
4190.37
4183.48
4176.61
4169.68
4162.57
4155.15
4147.32
4138.98
4130.07
4120.51
4109.99
4102.47
4101.28
4101.33
4101.29
4102.87
4107.01
4109.65
4110.84
4111.15
4111.41
4111.62
4111.77
4111.89
4111.97
4112.02
4112.05
4112.06
4372.14
4372.06
4371.9
4371.66
4371.37
4371
4370.58
4370.08
4369.52
4368.87
4368.14
4367.33
4366.43
4365.46
4364.4
4363.27
4362.07
4360.78
4359.42
4357.97
4356.42
4354.77
4352.99
4351.05
4348.92
4346.53
4343.95
4341.15
4338.28
4335.49
4332.77
4330.34
4328.14
4326.09
4324.1
4322.05
4319.82
4317.37
4314.81
4312.23
4309.84
4307.65
4305.6
4303.64
4301.73
4299.88
4298.1
4296.41
4294.82
4293.32
4291.89
4290.52
4289.19
4287.88
4286.59
4285.3
4284.03
4282.75
4281.47
4280.18
4278.9
4277.61
4276.31
4275
4273.66
4272.26
4270.77
4269.18
4267.54
4265.9
4264.3
4262.8
4261.42
4260.11
4258.86
4257.6
4256.32
4255.01
4253.68
4252.32
4250.95
4249.58
4248.26
4246.99
4245.76
4244.57
4243.41
4242.27
4241.13
4240.01
4238.89
4237.77
4236.66
4235.55
4234.44
4233.34
4232.24
4231.15
4230.06
4228.97
4227.89
4226.83
4225.77
4224.71
4223.67
4222.64
4221.62
4220.62
4219.63
4218.67
4217.74
4216.86
4216.03
4215.27
4214.6
4214.03
4213.56
4213.23
4213.01
4209.65
4202.77
4195.62
4188.39
4181.18
4173.95
4166.65
4159.21
4151.52
4143.53
4135.15
4126.37
4117.12
4107.28
4101.37
4100.76
4100.79
4100.81
4102.12
4105.52
4107.8
4108.78
4109.2
4109.5
4109.73
4109.89
4110.01
4110.1
4110.15
4110.19
4110.2
4369.15
4369.11
4369.02
4368.89
4368.73
4368.53
4368.29
4367.99
4367.62
4367.16
4366.62
4365.99
4365.27
4364.46
4363.56
4362.59
4361.53
4360.39
4359.16
4357.85
4356.44
4354.92
4353.26
4351.45
4349.42
4346.93
4344.25
4341.12
4337.87
4334.94
4331.86
4329.45
4327.41
4325.58
4323.83
4322
4319.83
4317.19
4314.34
4311.37
4308.89
4306.72
4304.75
4302.84
4300.94
4299.06
4297.26
4295.59
4294.05
4292.61
4291.25
4289.95
4288.69
4287.45
4286.22
4285
4283.76
4282.53
4281.28
4280.03
4278.77
4277.52
4276.28
4275.02
4273.75
4272.39
4270.89
4269.19
4267.43
4265.67
4263.94
4262.39
4261.04
4259.82
4258.66
4257.48
4256.22
4254.91
4253.58
4252.2
4250.77
4249.33
4247.98
4246.71
4245.5
4244.34
4243.21
4242.09
4240.98
4239.87
4238.77
4237.67
4236.57
4235.47
4234.38
4233.28
4232.19
4231.1
4230.02
4228.94
4227.87
4226.81
4225.76
4224.72
4223.69
4222.67
4221.65
4220.65
4219.66
4218.69
4217.76
4216.88
4216.05
4215.3
4214.63
4214.07
4213.64
4213.33
4213.12
4209.21
4201.58
4193.98
4186.41
4178.88
4171.36
4163.78
4156.08
4148.21
4140.11
4131.74
4123.12
4114.31
4105.49
4100.72
4100.26
4100.27
4100.32
4100.49
4103.51
4106.21
4106.92
4107.36
4107.67
4107.89
4108.06
4108.18
4108.26
4108.31
4108.34
4108.35
4366.19
4366.18
4366.17
4366.14
4366.12
4366.1
4366.05
4365.96
4365.8
4365.55
4365.2
4364.75
4364.19
4363.55
4362.81
4361.98
4361.07
4360.08
4359
4357.83
4356.58
4355.21
4353.7
4352.07
4350.37
4348.23
4345.49
4340.87
4336.51
4333.21
4330.25
4328.2
4326.48
4324.99
4323.65
4322.3
4320.53
4317.34
4313.22
4310
4307.63
4305.61
4303.83
4302.03
4300.13
4298.17
4296.3
4294.64
4293.16
4291.82
4290.56
4289.35
4288.18
4287.02
4285.86
4284.69
4283.51
4282.31
4281.1
4279.88
4278.65
4277.44
4276.24
4275.07
4273.9
4272.68
4271.21
4269.27
4267.31
4265.39
4263.39
4261.79
4260.54
4259.48
4258.49
4257.44
4256.16
4254.83
4253.54
4252.11
4250.61
4248.98
4247.61
4246.36
4245.19
4244.08
4243
4241.91
4240.83
4239.74
4238.65
4237.56
4236.48
4235.39
4234.31
4233.22
4232.14
4231.06
4229.98
4228.9
4227.84
4226.78
4225.74
4224.71
4223.69
4222.68
4221.67
4220.66
4219.66
4218.68
4217.74
4216.84
4215.99
4215.23
4214.56
4214
4213.58
4213.3
4213.08
4208.68
4200.37
4192.3
4184.4
4176.59
4168.82
4161.02
4153.14
4145.13
4136.95
4128.59
4120.06
4111.53
4103.61
4099.89
4099.67
4099.71
4099.8
4099.95
4102.44
4104.84
4105.29
4105.65
4105.92
4106.13
4106.27
4106.37
4106.44
4106.48
4106.51
4106.52
4363.24
4363.26
4363.31
4363.39
4363.52
4363.68
4363.86
4364
4364.07
4364.03
4363.87
4363.6
4363.21
4362.72
4362.13
4361.46
4360.69
4359.85
4358.92
4357.91
4356.82
4355.63
4354.26
4352.94
4351.3
4347.54
4343.31
4338.95
4335.23
4331.83
4328.7
4326.59
4325.32
4324.24
4323.47
4322.75
4320.4
4316.38
4312.11
4308.32
4305.94
4304.25
4302.94
4301.33
4299.38
4297.18
4295.12
4293.5
4292.15
4290.94
4289.81
4288.72
4287.65
4286.58
4285.5
4284.4
4283.27
4282.11
4280.93
4279.73
4278.52
4277.33
4276.19
4275.11
4274.12
4273.19
4272.17
4269.56
4266.45
4264.03
4262.18
4260.84
4259.84
4259.06
4258.37
4257.71
4256.15
4254.54
4253.74
4252.18
4249.94
4248.14
4247.14
4245.94
4244.82
4243.81
4242.78
4241.74
4240.68
4239.6
4238.53
4237.46
4236.38
4235.31
4234.24
4233.16
4232.09
4231.01
4229.93
4228.86
4227.79
4226.75
4225.72
4224.7
4223.69
4222.69
4221.69
4220.67
4219.65
4218.64
4217.67
4216.74
4215.87
4215.06
4214.36
4213.8
4213.38
4213.12
4212.83
4207.82
4198.91
4190.47
4182.3
4174.27
4166.3
4158.33
4150.32
4142.22
4133.99
4125.59
4117
4108.13
4101.04
4098.89
4099.01
4099.1
4099.23
4099.43
4101.58
4103.43
4103.74
4104.02
4104.25
4104.42
4104.53
4104.61
4104.65
4104.68
4104.69
4104.7
4360.26
4360.3
4360.41
4360.59
4360.87
4361.25
4361.69
4362.11
4362.44
4362.63
4362.67
4362.57
4362.34
4362
4361.55
4361.02
4360.4
4359.7
4358.92
4358.06
4357.18
4356.24
4355.04
4351.72
4347.98
4343.47
4339.56
4335.95
4332.73
4329.78
4326.99
4325.25
4323.86
4323.2
4322.83
4322.43
4319.63
4314.83
4310.33
4306.29
4303.21
4302.33
4301.88
4300.65
4298.45
4295.64
4293.43
4292.08
4291
4289.99
4289.02
4288.06
4287.11
4286.15
4285.16
4284.14
4283.06
4281.94
4280.77
4279.58
4278.37
4277.18
4276.06
4275.06
4274.29
4273.67
4271.99
4268.83
4265.85
4263.28
4260.94
4259.42
4258.91
4258.55
4258.02
4257.37
4255.82
4253.89
4252.67
4251.37
4249.68
4248.1
4246.51
4245.12
4244.35
4243.54
4242.59
4241.58
4240.53
4239.47
4238.41
4237.35
4236.29
4235.23
4234.17
4233.1
4232.03
4230.96
4229.88
4228.8
4227.73
4226.69
4225.67
4224.67
4223.69
4222.71
4221.72
4220.68
4219.61
4218.56
4217.56
4216.59
4215.66
4214.79
4214.04
4213.44
4213.01
4212.75
4212.4
4206.28
4196.97
4188.36
4180.05
4171.88
4163.78
4155.7
4147.59
4139.43
4131.18
4122.8
4114.21
4105.25
4099.24
4098.19
4098.33
4098.46
4098.62
4098.79
4100.29
4101.97
4102.21
4102.45
4102.63
4102.76
4102.83
4102.87
4102.88
4102.88
4102.88
4102.88
4357.22
4357.29
4357.44
4357.7
4358.12
4358.74
4359.55
4360.32
4360.95
4361.37
4361.6
4361.66
4361.58
4361.37
4361.06
4360.66
4360.19
4359.63
4359
4358.23
4357.6
4356.23
4352.23
4346.8
4342.6
4338.82
4335.52
4332.58
4329.95
4327.56
4325.42
4323.79
4322.56
4321.93
4321.76
4321.5
4318.31
4313
4308.09
4303.11
4299.91
4300.64
4300.85
4299.22
4295.47
4292.06
4291.13
4290.48
4289.76
4288.99
4288.21
4287.41
4286.59
4285.75
4284.87
4283.92
4282.9
4281.81
4280.66
4279.44
4278.2
4276.97
4275.82
4274.79
4274.05
4273.55
4271.52
4267.99
4264.79
4261.89
4259.14
4257.71
4257.74
4257.9
4257.4
4256.23
4254.21
4252.28
4251.26
4250.36
4249.15
4248.04
4246.42
4244.95
4244.23
4243.41
4242.45
4241.46
4240.41
4239.33
4238.28
4237.25
4236.19
4235.15
4234.11
4233.05
4231.99
4230.91
4229.82
4228.73
4227.65
4226.62
4225.61
4224.63
4223.68
4222.74
4221.79
4220.72
4219.57
4218.43
4217.42
4216.41
4215.39
4214.41
4213.57
4212.91
4212.45
4212.18
4209.85
4202.61
4194.34
4185.96
4177.66
4169.42
4161.24
4153.08
4144.92
4136.74
4128.51
4120.21
4111.8
4103.17
4097.98
4097.4
4097.59
4097.78
4098.01
4098.28
4098.94
4100.29
4100.69
4100.94
4101.08
4101.15
4101.17
4101.15
4101.13
4101.1
4101.07
4101.06
4354.13
4354.19
4354.35
4354.64
4355.16
4356.06
4357.43
4358.69
4359.65
4360.31
4360.71
4360.9
4360.94
4360.85
4360.66
4360.39
4360.05
4359.65
4359.2
4358.38
4355.01
4350.88
4345.44
4340.64
4336.82
4333.7
4331.11
4328.89
4326.93
4325.08
4323.35
4321.86
4321.27
4320.07
4320.36
4320.39
4316.33
4310.78
4305.91
4301.24
4298.89
4299.49
4299.86
4297
4292.27
4289.26
4289.31
4289.04
4288.58
4288.02
4287.41
4286.77
4286.1
4285.4
4284.63
4283.78
4282.81
4281.74
4280.6
4279.33
4278
4276.69
4275.44
4274.23
4273.36
4272.83
4270.61
4266.83
4263.45
4260.34
4257.35
4255.8
4255.91
4255.76
4255.32
4254.02
4252.58
4251.48
4250.64
4249.79
4248.9
4248.28
4247.04
4245.55
4244.63
4243.45
4242.27
4241.37
4240.24
4239.09
4238.13
4237.15
4236.08
4235.06
4234.05
4233.01
4231.95
4230.87
4229.77
4228.64
4227.52
4226.52
4225.52
4224.56
4223.67
4222.79
4221.97
4220.91
4219.46
4218.16
4217.27
4216.25
4215.08
4213.88
4212.93
4212.16
4211.65
4211.37
4207.71
4199.98
4191.81
4183.5
4175.19
4166.92
4158.68
4150.47
4142.27
4134.09
4125.91
4117.75
4109.59
4101.42
4096.89
4096.6
4096.79
4097.06
4097.37
4097.73
4098.19
4098.93
4099.33
4099.53
4099.6
4099.59
4099.53
4099.45
4099.37
4099.3
4099.25
4099.23
4350.96
4351.01
4351.12
4351.35
4351.84
4352.89
4355.42
4357.37
4358.65
4359.5
4360.01
4360.3
4360.42
4360.43
4360.34
4360.18
4359.96
4359.74
4356.74
4353.07
4347.74
4342.95
4338.01
4333.51
4330.33
4328.05
4326.32
4324.94
4323.8
4322.5
4321.03
4319.58
4318.49
4317.02
4317.28
4316.59
4312.35
4307.86
4303.53
4299.34
4297.3
4297.54
4297.05
4294.14
4290.26
4288.05
4287.99
4287.81
4287.49
4287.09
4286.64
4286.15
4285.64
4285.1
4284.49
4283.76
4282.8
4281.75
4280.66
4279.28
4277.72
4276.35
4275.02
4273.33
4272.13
4271.49
4269.16
4265.27
4261.82
4258.66
4255.64
4254.12
4254.04
4253.51
4253.34
4252.93
4251.95
4251.26
4250.61
4249.73
4248.87
4248.1
4247.4
4246.49
4244.79
4243
4241.65
4240.53
4239.37
4238.25
4237.21
4236.19
4235.15
4234.12
4233.12
4232.1
4231.07
4230.01
4228.86