/*--------------------------------*- C++ -*----------------------------------*\
| =========                 |                                                 |
| \\      /  F ield         | OpenFOAM: The Open Source CFD Toolbox           |
|  \\    /   O peration     | Version:  2.1.0                                 |
|   \\  /    A nd           | Web:      www.OpenFOAM.org                      |
|    \\/     M anipulation  |                                                 |
\*---------------------------------------------------------------------------*/
FoamFile
{
    version     2.0;
    format      ascii;
    class       volScalarField;
    location    "32120";
    object      kr_o;
}
// * * * * * * * * * * * * * * * * * * * * * * * * * * * * * * * * * * * * * //

dimensions      [0 0 0 0 0 0 0];

internalField   nonuniform List<scalar> 
8000
(
0.012309
0.0154545
0.019886
0.0253183
0.0315202
0.0383057
0.0455203
0.0530344
0.0607403
0.0685515
0.0763813
0.0841463
0.0917797
0.0992356
0.106486
0.11352
0.120334
0.126931
0.133325
0.139538
0.145594
0.151519
0.157346
0.163109
0.168849
0.174616
0.180471
0.186489
0.192772
0.199455
0.206727
0.214864
0.224295
0.23575
0.25059
0.271606
0.304938
0.36324
0.458822
0.543339
0.0154542
0.0186228
0.0230279
0.0283993
0.0345233
0.04123
0.0483751
0.0558362
0.0635106
0.0713092
0.0791368
0.0869064
0.0945494
0.102018
0.109283
0.116331
0.12316
0.129769
0.136174
0.142394
0.148452
0.154371
0.160181
0.165912
0.171601
0.177295
0.18305
0.188942
0.19507
0.201573
0.208646
0.216573
0.225796
0.237056
0.25173
0.272645
0.306025
0.364648
0.460384
0.543858
0.0198858
0.0230278
0.0273544
0.0326159
0.0386206
0.0452145
0.0522658
0.0596603
0.0673011
0.075089
0.082919
0.0906982
0.0983544
0.105837
0.113117
0.120178
0.127014
0.133626
0.140028
0.146238
0.152274
0.158157
0.16391
0.16956
0.175137
0.180681
0.186246
0.191904
0.19776
0.20396
0.210712
0.218319
0.227237
0.238222
0.252669
0.273431
0.3068
0.365651
0.461495
0.544226
0.0253182
0.0283992
0.0326159
0.0377463
0.043619
0.0500957
0.0570574
0.0644018
0.0720304
0.079829
0.0876834
0.0954929
0.103179
0.11069
0.117993
0.12507
0.131913
0.138526
0.144922
0.151114
0.157117
0.162948
0.168621
0.174154
0.17957
0.1849
0.190191
0.195512
0.200972
0.206732
0.213025
0.220181
0.228684
0.239309
0.253464
0.274024
0.307339
0.366368
0.462323
0.544507
0.03152
0.034523
0.0386205
0.043619
0.0493675
0.0557444
0.0626474
0.0699832
0.0776413
0.0854962
0.0934209
0.101302
0.109053
0.116618
0.123963
0.131069
0.13793
0.144554
0.150953
0.157135
0.163113
0.168892
0.174481
0.179886
0.185114
0.190183
0.195125
0.200005
0.204932
0.210089
0.215748
0.22229
0.230242
0.240404
0.254198
0.274516
0.307761
0.366968
0.463071
0.544776
0.0383053
0.0412295
0.0452144
0.0500956
0.0557444
0.0620601
0.0689585
0.0763436
0.0840994
0.0920901
0.100168
0.108193
0.116068
0.123731
0.13115
0.13831
0.145216
0.151879
0.158307
0.16451
0.17049
0.17625
0.181782
0.187077
0.192123
0.196913
0.201453
0.205788
0.210023
0.214365
0.219149
0.224853
0.232072
0.241641
0.254994
0.275037
0.308223
0.367667
0.463993
0.545122
0.0455198
0.0483747
0.0522657
0.0570573
0.0626473
0.0689585
0.0759147
0.0834289
0.0913913
0.099657
0.108038
0.116334
0.124424
0.13225
0.139791
0.147054
0.154053
0.160805
0.167319
0.173602
0.179654
0.185466
0.191017
0.196277
0.201204
0.205751
0.209878
0.213579
0.216932
0.220159
0.223697
0.228215
0.234429
0.24322
0.256028
0.275764
0.308934
0.368737
0.465385
0.545641
0.0530341
0.055836
0.0596602
0.0644017
0.0699832
0.0763436
0.0834289
0.0911818
0.0995248
0.108321
0.117306
0.126089
0.134535
0.142617
0.150365
0.157811
0.164989
0.171921
0.178624
0.185105
0.191361
0.197374
0.203109
0.208509
0.213493
0.21795
0.221754
0.224791
0.227037
0.228685
0.230309
0.233014
0.237744
0.245448
0.257544
0.276925
0.310147
0.370493
0.467571
0.546425
0.0607401
0.0635104
0.067301
0.0720303
0.0776412
0.0840993
0.0913912
0.0995248
0.108522
0.118362
0.128704
0.138367
0.14738
0.15588
0.163979
0.171758
0.179275
0.18657
0.193671
0.200591
0.207328
0.213863
0.220147
0.226098
0.231582
0.2364
0.240269
0.242837
0.24377
0.243007
0.24123
0.24064
0.242815
0.248801
0.259873
0.278799
0.31215
0.373277
0.470863
0.547537
0.0685512
0.071309
0.0750889
0.0798289
0.0854961
0.09209
0.0996569
0.108321
0.118362
0.130388
0.14522
0.156476
0.166446
0.175704
0.18451
0.193012
0.201312
0.209484
0.217584
0.225652
0.23371
0.241761
0.249767
0.257635
0.265182
0.272081
0.27777
0.281318
0.281306
0.276089
0.265441
0.255327
0.251384
0.254033
0.263412
0.281674
0.315226
0.377407
0.475506
0.548989
0.0763807
0.0791366
0.0829188
0.0876833
0.0934206
0.100168
0.108038
0.117305
0.128703
0.14522
0.494374
0.508867
0.503289
0.500507
0.499632
0.499974
0.501156
0.502931
0.505125
0.507593
0.510209
0.512851
0.515385
0.517655
0.519448
0.520431
0.519994
0.516779
0.506976
0.47796
0.272377
0.26294
0.258477
0.259708
0.267875
0.285604
0.319552
0.383119
0.481612
0.550724
0.0841455
0.0869062
0.0906979
0.0954927
0.101301
0.108193
0.116333
0.126089
0.138367
0.156475
0.508867
0.558205
0.559541
0.559141
0.55891
0.558836
0.558875
0.558995
0.559168
0.559373
0.559592
0.559806
0.560003
0.560166
0.560279
0.560315
0.560219
0.559869
0.558919
0.556391
0.279962
0.269589
0.264951
0.265532
0.272997
0.290504
0.325178
0.390538
0.489103
0.552622
0.0917791
0.0945491
0.0983539
0.103179
0.109052
0.116067
0.124423
0.134534
0.14738
0.166446
0.503287
0.559541
0.562333
0.562392
0.562381
0.562373
0.562374
0.562376
0.562382
0.56239
0.562398
0.562406
0.562415
0.562421
0.562424
0.562425
0.562421
0.562406
0.562371
0.562297
0.287779
0.276148
0.271292
0.271518
0.278647
0.296281
0.3321
0.399699
0.497711
0.554533
0.0992352
0.102017
0.105837
0.110689
0.116617
0.123731
0.13225
0.142617
0.15588
0.175704
0.500507
0.559141
0.562392
0.562495
0.562497
0.562496
0.562496
0.562496
0.562496
0.562496
0.562496
0.562498
0.562498
0.562498
0.562498
0.562498
0.562498
0.562498
0.562497
0.562495
0.295844
0.282857
0.277717
0.277723
0.284778
0.30288
0.340311
0.410568
0.50701
0.556316
0.106486
0.109282
0.113116
0.117992
0.123963
0.13115
0.13979
0.150364
0.163979
0.184509
0.499632
0.55891
0.562381
0.562497
0.5625
0.5625
0.5625
0.5625
0.5625
0.5625
0.5625
0.5625
0.5625
0.5625
0.5625
0.5625
0.5625
0.5625
0.5625
0.5625
0.304171
0.289806
0.284337
0.284205
0.291396
0.3103
0.349836
0.423044
0.51647
0.557867
0.113519
0.116331
0.120178
0.12507
0.131068
0.138309
0.147053
0.157811
0.171758
0.193012
0.499974
0.558836
0.562373
0.562496
0.5625
0.5625
0.5625
0.5625
0.5625
0.5625
0.5625
0.5625
0.5625
0.5625
0.5625
0.5625
0.5625
0.5625
0.5625
0.5625
0.312788
0.297051
0.291228
0.291029
0.298546
0.318588
0.360722
0.436923
0.525538
0.559136
0.120333
0.123159
0.127013
0.131912
0.137929
0.145216
0.154053
0.164988
0.179275
0.201312
0.501156
0.558875
0.562374
0.562496
0.5625
0.5625
0.5625
0.5625
0.5625
0.5625
0.5625
0.5625
0.5625
0.5625
0.5625
0.5625
0.5625
0.5625
0.5625
0.5625
0.321752
0.304655
0.298466
0.298271
0.306307
0.327832
0.373024
0.451843
0.533738
0.560122
0.12693
0.129769
0.133626
0.138526
0.144554
0.151878
0.160804
0.17192
0.18657
0.209484
0.502931
0.558995
0.562376
0.562496
0.5625
0.5625
0.5625
0.5625
0.5625
0.5625
0.5625
0.5625
0.5625
0.5625
0.5625
0.5625
0.5625
0.5625
0.5625
0.5625
0.331149
0.312698
0.306142
0.306036
0.314793
0.338161
0.386741
0.467243
0.540743
0.560854
0.133325
0.136174
0.140028
0.144921
0.150952
0.158307
0.167318
0.178623
0.19367
0.217584
0.505125
0.559169
0.562382
0.562496
0.5625
0.5625
0.5625
0.5625
0.5625
0.5625
0.5625
0.5625
0.5625
0.5625
0.5625
0.5625
0.5625
0.5625
0.5625
0.5625
0.341102
0.321294
0.314379
0.314458
0.324149
0.349718
0.401726
0.482402
0.546416
0.561377
0.139538
0.142394
0.146237
0.151113
0.157135
0.164509
0.173602
0.185104
0.20059
0.225651
0.507593
0.559373
0.56239
0.562496
0.5625
0.5625
0.5625
0.5625
0.5625
0.5625
0.5625
0.5625
0.5625
0.5625
0.5625
0.5625
0.5625
0.5625
0.5625
0.5625
0.351775
0.330601
0.323337
0.323709
0.334553
0.362624
0.417597
0.49657
0.550793
0.561739
0.145593
0.148451
0.152273
0.157117
0.163112
0.17049
0.179654
0.19136
0.207328
0.23371
0.510209
0.559592
0.562398
0.562496
0.5625
0.5625
0.5625
0.5625
0.5625
0.5625
0.5625
0.5625
0.5625
0.5625
0.5625
0.5625
0.5625
0.5625
0.5625
0.5625
0.36338
0.340824
0.333225
0.333996
0.346191
0.3769
0.433914
0.509143
0.55403
0.561982
0.151519
0.154371
0.158156
0.162947
0.168892
0.176249
0.185465
0.197373
0.213862
0.24176
0.512851
0.559806
0.562406
0.562498
0.5625
0.5625
0.5625
0.5625
0.5625
0.5625
0.5625
0.5625
0.5625
0.5625
0.5625
0.5625
0.5625
0.5625
0.5625
0.5625
0.376161
0.352222
0.344298
0.345557
0.359222
0.392356
0.450042
0.519775
0.55634
0.562143
0.157346
0.16018
0.16391
0.16862
0.174481
0.181781
0.191017
0.203108
0.220146
0.249766
0.515385
0.560003
0.562415
0.562498
0.5625
0.5625
0.5625
0.5625
0.5625
0.5625
0.5625
0.5625
0.5625
0.5625
0.5625
0.5625
0.5625
0.5625
0.5625
0.5625
0.390356
0.365093
0.356845
0.358619
0.373696
0.408465
0.465199
0.528385
0.55794
0.562247
0.163109
0.165911
0.169559
0.174153
0.179885
0.187076
0.196277
0.208509
0.226097
0.257635
0.517655
0.560166
0.562421
0.562498
0.5625
0.5625
0.5625
0.5625
0.5625
0.5625
0.5625
0.5625
0.5625
0.5625
0.5625
0.5625
0.5625
0.5625
0.5625
0.5625
0.406098
0.379719
0.371133
0.373332
0.389428
0.424345
0.478702
0.535082
0.559019
0.562313
0.168849
0.171601
0.175136
0.17957
0.185113
0.192122
0.201204
0.213492
0.231582
0.265182
0.519448
0.560279
0.562424
0.562498
0.5625
0.5625
0.5625
0.5625
0.5625
0.5625
0.5625
0.5625
0.5625
0.5625
0.5625
0.5625
0.5625
0.5625
0.5625
0.5625
0.423246
0.396248
0.387298
0.389625
0.405874
0.439306
0.49016
0.54007
0.559719
0.562353
0.174616
0.177295
0.180681
0.1849
0.190182
0.196912
0.205751
0.217949
0.236399
0.272081
0.520431
0.560315
0.562425
0.562498
0.5625
0.5625
0.5625
0.5625
0.5625
0.5625
0.5625
0.5625
0.5625
0.5625
0.5625
0.5625
0.5625
0.5625
0.5625
0.5625
0.441211
0.414493
0.405151
0.407049
0.422108
0.452934
0.499491
0.543593
0.560143
0.562374
0.18047
0.18305
0.186245
0.19019
0.195125
0.201452
0.209877
0.221753
0.240269
0.27777
0.519994
0.560219
0.562421
0.562498
0.5625
0.5625
0.5625
0.5625
0.5625
0.5625
0.5625
0.5625
0.5625
0.5625
0.5625
0.5625
0.5625
0.5625
0.5625
0.5625
0.459375
0.43379
0.424023
0.424721
0.43743
0.46499
0.506844
0.545905
0.56036
0.562382
0.186489
0.188941
0.191903
0.195511
0.200004
0.205787
0.213578
0.22479
0.242837
0.281318
0.516779
0.559869
0.562406
0.562498
0.5625
0.5625
0.5625
0.5625
0.5625
0.5625
0.5625
0.5625
0.5625
0.5625
0.5625
0.5625
0.5625
0.5625
0.5625
0.5625
0.477538
0.453846
0.443298
0.442119
0.45189
0.475546
0.512528
0.547263
0.560411
0.562378
0.192772
0.195069
0.197759
0.200971
0.204932
0.210023
0.216931
0.227036
0.243769
0.281306
0.506976
0.558919
0.562371
0.562497
0.5625
0.5625
0.5625
0.5625
0.5625
0.5625
0.5625
0.5625
0.5625
0.5625
0.5625
0.5625
0.5625
0.5625
0.5625
0.5625
0.495732
0.474881
0.463253
0.45957
0.46581
0.485011
0.516998
0.547934
0.56033
0.562362
0.199455
0.201572
0.203959
0.206731
0.210089
0.214365
0.220159
0.228684
0.243006
0.276089
0.477959
0.556391
0.562297
0.562495
0.5625
0.5625
0.5625
0.5625
0.5625
0.5625
0.5625
0.5625
0.5625
0.5625
0.5625
0.5625
0.5625
0.5625
0.5625
0.5625
0.514792
0.497565
0.484547
0.477749
0.479878
0.494142
0.520912
0.548253
0.560158
0.562336
0.206727
0.208645
0.210711
0.213024
0.215747
0.219149
0.223696
0.230309
0.24123
0.265441
0.272376
0.279961
0.287779
0.295844
0.304171
0.312788
0.321752
0.331149
0.341101
0.351775
0.36338
0.376161
0.390357
0.406098
0.423246
0.441211
0.459375
0.477538
0.495732
0.514792
0.527632
0.520138
0.507263
0.497389
0.495069
0.504006
0.525197
0.548711
0.559992
0.5623
0.214863
0.216573
0.218318
0.22018
0.22229
0.224852
0.228214
0.233014
0.240639
0.255327
0.262939
0.269588
0.276147
0.282856
0.289805
0.297051
0.304654
0.312697
0.321294
0.330601
0.340824
0.352222
0.365092
0.379719
0.396248
0.414493
0.433789
0.453846
0.474881
0.497565
0.520139
0.52931
0.525295
0.516711
0.511527
0.51551
0.530917
0.550001
0.559902
0.562256
0.224295
0.225796
0.227236
0.228683
0.230242
0.232071
0.234428
0.237744
0.242815
0.251384
0.258477
0.264951
0.271292
0.277716
0.284336
0.291228
0.298466
0.306142
0.314379
0.323337
0.333225
0.344298
0.356845
0.371133
0.387297
0.405151
0.424023
0.443298
0.463253
0.484547
0.507263
0.525295
0.532885
0.53134
0.527378
0.52847
0.538715
0.552094
0.559929
0.56221
0.23575
0.237055
0.238222
0.239309
0.240404
0.241641
0.24322
0.245448
0.248801
0.254032
0.259708
0.265532
0.271518
0.277723
0.284205
0.291028
0.298271
0.306036
0.314458
0.323709
0.333996
0.345556
0.358619
0.373332
0.389625
0.407048
0.424721
0.442118
0.45957
0.477749
0.497389
0.516711
0.53134
0.53828
0.539524
0.540402
0.545946
0.554292
0.560077
0.562166
0.25059
0.251729
0.252669
0.253463
0.254197
0.254994
0.256027
0.257544
0.259872
0.263411
0.267875
0.272997
0.278647
0.284777
0.291396
0.298546
0.306307
0.314792
0.324149
0.334553
0.346191
0.359222
0.373696
0.389428
0.405873
0.422108
0.43743
0.45189
0.46581
0.479878
0.495069
0.511528
0.527378
0.539524
0.545652
0.548237
0.551515
0.556337
0.56032
0.562129
0.271606
0.272645
0.27343
0.274023
0.274516
0.275037
0.275763
0.276925
0.278799
0.281674
0.285604
0.290504
0.296281
0.30288
0.3103
0.318587
0.327832
0.338161
0.349718
0.362624
0.3769
0.392355
0.408464
0.424344
0.439305
0.452934
0.464989
0.475546
0.485011
0.494142
0.504006
0.51551
0.52847
0.540402
0.548237
0.552359
0.555081
0.55797
0.560606
0.5621
0.304938
0.306025
0.306799
0.307339
0.30776
0.308223
0.308933
0.310146
0.31215
0.315226
0.319551
0.325178
0.332099
0.340311
0.349836
0.360722
0.373024
0.386741
0.401726
0.417597
0.433914
0.450042
0.465198
0.478701
0.49016
0.49949
0.506844
0.512528
0.516998
0.520912
0.525197
0.530916
0.538715
0.545946
0.551515
0.555081
0.557325
0.559183
0.560899
0.562082
0.36324
0.364647
0.36565
0.366368
0.366967
0.367667
0.368736
0.370493
0.373277
0.377407
0.383119
0.390538
0.399699
0.410568
0.423044
0.436923
0.451843
0.467243
0.482402
0.49657
0.509143
0.519775
0.528385
0.535082
0.54007
0.543593
0.545905
0.547263
0.547934
0.548253
0.54871
0.550001
0.552094
0.554292
0.556337
0.55797
0.559183
0.56021
0.561225
0.562087
0.458822
0.460383
0.461495
0.462323
0.463071
0.463993
0.465385
0.467571
0.470862
0.475506
0.481612
0.489103
0.497711
0.50701
0.51647
0.525538
0.533738
0.540743
0.546416
0.550793
0.55403
0.55634
0.55794
0.559019
0.559719
0.560143
0.56036
0.560411
0.56033
0.560158
0.559992
0.559902
0.559929
0.560077
0.56032
0.560606
0.560899
0.561225
0.561651
0.562149
0.543339
0.543858
0.544226
0.544507
0.544776
0.545122
0.545641
0.546425
0.547537
0.548989
0.550724
0.552622
0.554533
0.556316
0.557867
0.559136
0.560122
0.560854
0.561377
0.561739
0.561982
0.562143
0.562247
0.562313
0.562353
0.562374
0.562382
0.562378
0.562362
0.562336
0.5623
0.562256
0.56221
0.562166
0.562129
0.5621
0.562082
0.562087
0.562149
0.562304
0.00287193
0.00489067
0.00826541
0.0128571
0.0184177
0.0247041
0.031508
0.0386521
0.0459906
0.0534057
0.0608075
0.0681337
0.0753307
0.0823533
0.0891727
0.0957753
0.102161
0.108342
0.114328
0.120136
0.125787
0.131305
0.136716
0.142053
0.14735
0.152649
0.158004
0.163477
0.169151
0.175134
0.181567
0.188649
0.196658
0.206008
0.217338
0.231735
0.251581
0.284603
0.356734
0.491785
0.00489022
0.00722952
0.0108362
0.0155401
0.0211316
0.0274069
0.0341817
0.0412945
0.0486083
0.0560097
0.0634117
0.0707493
0.0779615
0.0850005
0.0918358
0.0984531
0.104853
0.111045
0.117039
0.122848
0.128494
0.133997
0.139381
0.144675
0.149911
0.155126
0.16037
0.165706
0.171216
0.177011
0.183239
0.190107
0.197903
0.20705
0.218196
0.232435
0.252148
0.285085
0.357341
0.492395
0.00826506
0.0108361
0.0145901
0.0193463
0.0249237
0.0311501
0.0378658
0.0449257
0.0522018
0.0595854
0.066991
0.0743429
0.081571
0.0886241
0.0954704
0.102096
0.108501
0.114693
0.120678
0.12647
0.132085
0.137541
0.142859
0.14806
0.153172
0.158229
0.163276
0.168376
0.173615
0.179112
0.185029
0.191589
0.199095
0.207983
0.218911
0.232975
0.25255
0.285382
0.357687
0.492758
0.0128569
0.0155401
0.0193462
0.0240944
0.029622
0.0357796
0.0424277
0.049436
0.0566856
0.0640719
0.071503
0.0788855
0.0861412
0.0932156
0.100076
0.106711
0.113122
0.119306
0.125275
0.131037
0.136606
0.141995
0.147217
0.152288
0.157227
0.16206
0.16683
0.171596
0.176452
0.181529
0.187015
0.193157
0.200284
0.208849
0.219519
0.233392
0.252827
0.28555
0.357878
0.492992
0.0184176
0.0211316
0.0249235
0.0296219
0.03508
0.0411658
0.0477576
0.054739
0.0620006
0.0694382
0.0769368
0.0843849
0.091695
0.0988099
0.1057
0.112356
0.118775
0.124958
0.130912
0.136645
0.142166
0.147482
0.152596
0.157515
0.162247
0.166807
0.171226
0.17556
0.179908
0.184422
0.189325
0.194912
0.20155
0.209714
0.220081
0.233744
0.253041
0.285673
0.35805
0.493248
0.024704
0.0274067
0.03115
0.0357796
0.0411658
0.047195
0.0537627
0.0607695
0.0681168
0.0756829
0.0833231
0.090899
0.0983106
0.105502
0.11245
0.119147
0.125592
0.131788
0.137744
0.143465
0.148954
0.15421
0.159227
0.163998
0.168515
0.172772
0.176781
0.180586
0.184283
0.18805
0.192167
0.197013
0.203015
0.210677
0.220683
0.234115
0.25328
0.285855
0.358375
0.493704
0.0315078
0.0341813
0.0378655
0.0424276
0.0477575
0.0537626
0.0603621
0.0674811
0.0750227
0.0828443
0.0907592
0.0985703
0.106161
0.113488
0.120538
0.127309
0.133811
0.140054
0.146047
0.151792
0.157289
0.162528
0.167492
0.172157
0.176488
0.180453
0.184025
0.187213
0.190094
0.192865
0.195892
0.199718
0.204868
0.211885
0.221449
0.234617
0.253653
0.286225
0.359055
0.494569
0.038652
0.0412943
0.0449254
0.0494359
0.0547389
0.0607695
0.0674811
0.0748243
0.0827203
0.0910282
0.0994869
0.107724
0.11562
0.123167
0.130376
0.137275
0.143887
0.150232
0.156322
0.162161
0.167742
0.173052
0.178058
0.182717
0.186966
0.190724
0.193902
0.196431
0.198313
0.199727
0.201153
0.203481
0.207418
0.213557
0.22255
0.235396
0.254294
0.286928
0.360311
0.496052
0.0459905
0.0486081
0.0522017
0.0566854
0.0620005
0.0681167
0.0750226
0.0827203
0.0912183
0.100477
0.110164
0.119179
0.127566
0.135441
0.142899
0.150011
0.156823
0.163368
0.169667
0.175727
0.181542
0.187093
0.192339
0.197216
0.201627
0.205431
0.208438
0.210418
0.211161
0.210656
0.209442
0.209227
0.211198
0.216014
0.224204
0.236619
0.255345
0.288116
0.36237
0.498347
0.0534053
0.0560095
0.0595852
0.064072
0.0694381
0.0756827
0.0828442
0.0910281
0.100477
0.111731
0.125498
0.135875
0.144999
0.153388
0.161273
0.168787
0.176012
0.183003
0.189796
0.196412
0.202854
0.209108
0.215133
0.220854
0.226144
0.230797
0.234481
0.236665
0.236535
0.233082
0.22606
0.219449
0.217221
0.219699
0.22665
0.238446
0.256934
0.289923
0.36544
0.501583
0.0608071
0.0634114
0.0669908
0.071503
0.0769366
0.0833229
0.0907591
0.0994867
0.110164
0.125498
0.47886
0.493519
0.485195
0.480176
0.477438
0.476142
0.475835
0.476235
0.477141
0.478389
0.479834
0.481328
0.482707
0.483758
0.484193
0.483535
0.480915
0.474353
0.458265
0.415498
0.231726
0.224908
0.222211
0.223661
0.229683
0.240881
0.259107
0.292433
0.369682
0.505797
0.0681334
0.070749
0.0743426
0.0788853
0.0843847
0.0908987
0.09857
0.107724
0.119179
0.135875
0.493519
0.555591
0.557536
0.556673
0.556041
0.555648
0.555438
0.555369
0.555403
0.555509
0.555655
0.555817
0.555961
0.556054
0.556046
0.555858
0.555342
0.554149
0.551319
0.544143
0.238101
0.229679
0.22673
0.227679
0.2331
0.243823
0.261827
0.295662
0.375202
0.510908
0.0753304
0.0779612
0.0815707
0.0861411
0.0916948
0.0983104
0.106161
0.11562
0.127565
0.144999
0.485195
0.557536
0.562172
0.562279
0.562242
0.562213
0.562195
0.562186
0.562184
0.562187
0.562192
0.562199
0.562207
0.562211
0.56221
0.562199
0.56217
0.562108
0.561971
0.561694
0.244315
0.23427
0.231078
0.23174
0.23678
0.247161
0.265013
0.29958
0.382066
0.516723
0.082353
0.0850001
0.0886238
0.0932155
0.0988096
0.105501
0.113487
0.123167
0.13544
0.153388
0.480176
0.556673
0.562279
0.562487
0.562493
0.56249
0.562489
0.562489
0.562489
0.562488
0.56249
0.56249
0.56249
0.56249
0.56249
0.56249
0.562489
0.562487
0.562483
0.562477
0.250424
0.238819
0.235381
0.235855
0.240652
0.250795
0.268569
0.304145
0.390326
0.522967
0.0891724
0.0918354
0.09547
0.100076
0.105699
0.11245
0.120537
0.130376
0.142899
0.161273
0.477438
0.556041
0.562242
0.562493
0.5625
0.5625
0.5625
0.5625
0.5625
0.5625
0.5625
0.5625
0.5625
0.5625
0.5625
0.5625
0.5625
0.5625
0.5625
0.5625
0.256459
0.243375
0.239698
0.240039
0.244676
0.254648
0.272408
0.309324
0.400034
0.529319
0.0957749
0.0984528
0.102095
0.106711
0.112356
0.119147
0.127309
0.137274
0.15001
0.168787
0.476142
0.555648
0.562213
0.56249
0.5625
0.5625
0.5625
0.5625
0.5625
0.5625
0.5625
0.5625
0.5625
0.5625
0.5625
0.5625
0.5625
0.5625
0.5625
0.5625
0.262436
0.247964
0.244058
0.244297
0.24882
0.258652
0.276457
0.315109
0.411236
0.535455
0.102161
0.104853
0.108501
0.113121
0.118774
0.125591
0.133811
0.143887
0.156823
0.176011
0.475835
0.555438
0.562195
0.562489
0.5625
0.5625
0.5625
0.5625
0.5625
0.5625
0.5625
0.5625
0.5625
0.5625
0.5625
0.5625
0.5625
0.5625
0.5625
0.5625
0.268372
0.252602
0.248482
0.248634
0.253059
0.262746
0.280663
0.321527
0.423924
0.54109
0.108341
0.111045
0.114693
0.119306
0.124957
0.131788
0.140054
0.150232
0.163368
0.183003
0.476235
0.555369
0.562186
0.562489
0.5625
0.5625
0.5625
0.5625
0.5625
0.5625
0.5625
0.5625
0.5625
0.5625
0.5625
0.5625
0.5625
0.5625
0.5625
0.5625
0.274286
0.257305
0.25298
0.253049
0.257362
0.266873
0.285008
0.328646
0.437962
0.546011
0.114328
0.117038
0.120678
0.125274
0.130911
0.137744
0.146046
0.156322
0.169667
0.189796
0.477141
0.555403
0.562184
0.562489
0.5625
0.5625
0.5625
0.5625
0.5625
0.5625
0.5625
0.5625
0.5625
0.5625
0.5625
0.5625
0.5625
0.5625
0.5625
0.5625
0.280191
0.262086
0.25756
0.257531
0.261692
0.270975
0.289535
0.336578
0.452991
0.5501
0.120136
0.122848
0.126469
0.131037
0.136645
0.143465
0.151792
0.16216
0.175726
0.196412
0.478389
0.555509
0.562187
0.562488
0.5625
0.5625
0.5625
0.5625
0.5625
0.5625
0.5625
0.5625
0.5625
0.5625
0.5625
0.5625
0.5625
0.5625
0.5625
0.5625
0.286097
0.266953
0.262216
0.262058
0.266
0.274995
0.294369
0.345471
0.468375
0.553335
0.125786
0.128493
0.132084
0.136606
0.142166
0.148954
0.157288
0.167742
0.181542
0.202854
0.479834
0.555655
0.562192
0.56249
0.5625
0.5625
0.5625
0.5625
0.5625
0.5625
0.5625
0.5625
0.5625
0.5625
0.5625
0.5625
0.5625
0.5625
0.5625
0.5625
0.292
0.271904
0.266932
0.26659
0.270223
0.278896
0.299535
0.355474
0.48327
0.555778
0.131304
0.133996
0.137541
0.141995
0.147481
0.154209
0.162527
0.173051
0.187092
0.209108
0.481328
0.555817
0.562199
0.56249
0.5625
0.5625
0.5625
0.5625
0.5625
0.5625
0.5625
0.5625
0.5625
0.5625
0.5625
0.5625
0.5625
0.5625
0.5625
0.5625
0.297883
0.276924
0.271672
0.271071
0.274291
0.282679
0.305029
0.366668
0.496814
0.557548
0.136716
0.139381
0.142858
0.147217
0.152596
0.159227
0.167492
0.178058
0.192339
0.215132
0.482707
0.555961
0.562207
0.56249
0.5625
0.5625
0.5625
0.5625
0.5625
0.5625
0.5625
0.5625
0.5625
0.5625
0.5625
0.5625
0.5625
0.5625
0.5625
0.5625
0.303718
0.281989
0.276385
0.275429
0.278146
0.286439
0.31087
0.378963
0.508354
0.55878
0.142052
0.144675
0.148059
0.152287
0.157515
0.163998
0.172156
0.182717
0.197216
0.220853
0.483759
0.556054
0.562211
0.56249
0.5625
0.5625
0.5625
0.5625
0.5625
0.5625
0.5625
0.5625
0.5625
0.5625
0.5625
0.5625
0.5625
0.5625
0.5625
0.5625
0.309502
0.287087
0.281025
0.279606
0.281788
0.290425
0.317062
0.391962
0.517564
0.559605
0.147349
0.14991
0.153171
0.157226
0.162246
0.168514
0.176488
0.186965
0.201626
0.226144
0.484193
0.556046
0.56221
0.56249
0.5625
0.5625
0.5625
0.5625
0.5625
0.5625
0.5625
0.5625
0.5625
0.5625
0.5625
0.5625
0.5625
0.5625
0.5625
0.5625
0.315325
0.292279
0.285603
0.283617
0.285338
0.294734
0.323547
0.40487
0.524401
0.560124
0.152649
0.155125
0.158228
0.16206
0.166806
0.172771
0.180452
0.190723
0.20543
0.230796
0.483535
0.555858
0.562199
0.56249
0.5625
0.5625
0.5625
0.5625
0.5625
0.5625
0.5625
0.5625
0.5625
0.5625
0.5625
0.5625
0.5625
0.5625
0.5625
0.5625
0.321523
0.297831
0.29031
0.287663
0.289173
0.299321
0.33017
0.416574
0.528983
0.560408
0.158004
0.16037
0.163275
0.166829
0.171225
0.176781
0.184025
0.193902
0.208438
0.23448
0.480915
0.555342
0.56217
0.562489
0.5625
0.5625
0.5625
0.5625
0.5625
0.5625
0.5625
0.5625
0.5625
0.5625
0.5625
0.5625
0.5625
0.5625
0.5625
0.5625
0.328597
0.30443
0.29574
0.292338
0.29369
0.304179
0.336672
0.42593
0.531477
0.560494
0.163477
0.165705
0.168375
0.171596
0.17556
0.180585
0.187213
0.19643
0.210418
0.236665
0.474354
0.554149
0.562108
0.562487
0.5625
0.5625
0.5625
0.5625
0.5625
0.5625
0.5625
0.5625
0.5625
0.5625
0.5625
0.5625
0.5625
0.5625
0.5625
0.5625
0.337112
0.312962
0.302853
0.298346
0.299067
0.309344
0.342724
0.432124
0.532021
0.560391
0.169151
0.171215
0.173614
0.176451
0.179907
0.184282
0.190093
0.198312
0.21116
0.236534
0.458265
0.551319
0.561971
0.562483
0.5625
0.5625
0.5625
0.5625
0.5625
0.5625
0.5625
0.5625
0.5625
0.5625
0.5625
0.5625
0.5625
0.5625
0.5625
0.5625
0.348427
0.324847
0.312753
0.306403
0.305729
0.314997
0.348078
0.434915
0.530701
0.560076
0.175133
0.17701
0.179111
0.181529
0.184421
0.188049
0.192864
0.199727
0.210655
0.233082
0.415499
0.544143
0.561694
0.562477
0.5625
0.5625
0.5625
0.5625
0.5625
0.5625
0.5625
0.5625
0.5625
0.5625
0.5625
0.5625
0.5625
0.5625
0.5625
0.5625
0.366605
0.343675
0.327997
0.318154
0.314689
0.321705
0.352841
0.434723
0.527617
0.559502
0.181567
0.183239
0.185029
0.187014
0.189324
0.192167
0.195892
0.201153
0.209442
0.226059
0.231726
0.2381
0.244315
0.250424
0.256459
0.262436
0.268372
0.274286
0.280191
0.286097
0.292
0.297883
0.303718
0.309502
0.315325
0.321523
0.328597
0.337112
0.348427
0.366605
0.383883
0.371883
0.352514
0.336737
0.328069
0.330769
0.357752
0.43269
0.523086
0.558601
0.188648
0.190106
0.191588
0.193156
0.194912
0.197012
0.199718
0.203481
0.209227
0.219448
0.224907
0.229679
0.23427
0.238819
0.243375
0.247964
0.252602
0.257305
0.262086
0.266953
0.271904
0.276923
0.281988
0.287087
0.292279
0.297831
0.30443
0.312962
0.324848
0.343676
0.371883
0.385699
0.378301
0.361789
0.347679
0.344129
0.36441
0.430089
0.517393
0.557292
0.196657
0.197902
0.199094
0.200283
0.201549
0.203014
0.204868
0.207418
0.211197
0.217221
0.222211
0.22673
0.231077
0.23538
0.239697
0.244058
0.248482
0.25298
0.25756
0.262216
0.266932
0.271672
0.276385
0.281025
0.285603
0.29031
0.29574
0.302853
0.312753
0.327997
0.352514
0.378301
0.390828
0.385629
0.371957
0.362987
0.374953
0.429689
0.511631
0.555582
0.206008
0.207049
0.207982
0.208848
0.209713
0.210676
0.211885
0.213557
0.216014
0.219699
0.22366
0.227679
0.23174
0.235855
0.240038
0.244297
0.248634
0.253049
0.257531
0.262058
0.26659
0.271071
0.275429
0.279606
0.283617
0.287663
0.292338
0.298346
0.306403
0.318154
0.336737
0.361789
0.385629
0.397507
0.394274
0.385999
0.391588
0.434453
0.507595
0.553649
0.217338
0.218196
0.21891
0.219518
0.22008
0.220682
0.221449
0.22255
0.224204
0.22665
0.229683
0.2331
0.236779
0.240652
0.244676
0.24882
0.253059
0.257362
0.261692
0.266
0.270223
0.274291
0.278146
0.281787
0.285338
0.289172
0.293689
0.299067
0.305729
0.314689
0.328069
0.347679
0.371958
0.394274
0.40659
0.408052
0.412965
0.445534
0.506972
0.551855
0.231735
0.232434
0.232974
0.233391
0.233744
0.234114
0.234617
0.235395
0.236618
0.238446
0.240881
0.243823
0.247161
0.250795
0.254648
0.258652
0.262746
0.266873
0.270974
0.274995
0.278896
0.282679
0.286439
0.290425
0.294734
0.299321
0.304179
0.309344
0.314997
0.321705
0.330769
0.344129
0.362987
0.385999
0.408052
0.42293
0.43449
0.461334
0.510304
0.550623
0.25158
0.252148
0.252549
0.252826
0.253041
0.253279
0.253653
0.254293
0.255345
0.256934
0.259107
0.261827
0.265013
0.268569
0.272408
0.276456
0.280663
0.285008
0.289535
0.294369
0.299534
0.305029
0.31087
0.317062
0.323547
0.33017
0.336671
0.342724
0.348078
0.352841
0.357752
0.36441
0.374952
0.391587
0.412965
0.43449
0.453752
0.479048
0.516931
0.550312
0.284603
0.285085
0.285381
0.28555
0.285673
0.285855
0.286224
0.286928
0.288116
0.289922
0.292433
0.295662
0.29958
0.304144
0.309323
0.315109
0.321527
0.328646
0.336578
0.345471
0.355473
0.366667
0.378963
0.391962
0.40487
0.416574
0.42593
0.432124
0.434915
0.434723
0.432689
0.430089
0.429688
0.434452
0.445533
0.461334
0.479047
0.500017
0.526809
0.551371
0.356733
0.357341
0.357687
0.357877
0.35805
0.358375
0.359055
0.360311
0.36237
0.36544
0.369682
0.375202
0.382066
0.390325
0.400034
0.411235
0.423924
0.437962
0.45299
0.468375
0.48327
0.496813
0.508354
0.517564
0.524401
0.528983
0.531477
0.53202
0.530701
0.527617
0.523086
0.517392
0.51163
0.507594
0.506971
0.510303
0.51693
0.526808
0.540342
0.554298
0.491785
0.492394
0.492758
0.492992
0.493248
0.493704
0.494568
0.496052
0.498346
0.501583
0.505797
0.510908
0.516723
0.522967
0.529319
0.535455
0.54109
0.546011
0.5501
0.553335
0.555778
0.557548
0.55878
0.559605
0.560124
0.560408
0.560494
0.560391
0.560076
0.559502
0.558601
0.557292
0.555582
0.553649
0.551855
0.550623
0.550312
0.551371
0.554298
0.558675
0.000256372
0.000993462
0.00305179
0.00665391
0.0115245
0.0173257
0.0237743
0.0306411
0.0377442
0.044941
0.052124
0.0592181
0.0661767
0.0729684
0.0795665
0.0859566
0.092135
0.0981082
0.10389
0.109496
0.114943
0.120255
0.125455
0.130573
0.13564
0.140696
0.145785
0.150967
0.156312
0.161913
0.167891
0.174405
0.181678
0.190032
0.199983
0.212526
0.230092
0.259772
0.322967
0.459992
0.000993053
0.00232538
0.00497934
0.00894007
0.0139814
0.0198509
0.0263173
0.0331809
0.040275
0.0474661
0.0546503
0.0617543
0.0687316
0.0755433
0.08216
0.0885658
0.0947566
0.100739
0.106524
0.112126
0.117562
0.122851
0.128016
0.133081
0.138077
0.143038
0.148008
0.153044
0.158219
0.163628
0.169399
0.175699
0.18276
0.19091
0.200673
0.213045
0.230463
0.260043
0.323275
0.460426
0.00305122
0.00497922
0.00810786
0.0123381
0.0174986
0.0233985
0.0298522
0.0366888
0.0437584
0.0509346
0.0581172
0.0652334
0.0722296
0.0790584
0.0856875
0.0920997
0.0982911
0.104268
0.110039
0.115615
0.121011
0.126243
0.131329
0.136291
0.141153
0.145946
0.150713
0.15551
0.160414
0.165531
0.170998
0.177001
0.183783
0.191685
0.201232
0.213424
0.23069
0.260158
0.323384
0.460619
0.00665356
0.00894014
0.0123381
0.0167183
0.0219339
0.0278308
0.0342551
0.0410598
0.0481091
0.055283
0.0624821
0.0696294
0.0766557
0.0835072
0.0901498
0.0965663
0.102754
0.108718
0.114462
0.119997
0.125334
0.130485
0.135462
0.14028
0.144957
0.149519
0.154005
0.158469
0.162998