/*--------------------------------*- C++ -*----------------------------------*\
| =========                 |                                                 |
| \\      /  F ield         | OpenFOAM: The Open Source CFD Toolbox           |
|  \\    /   O peration     | Version:  2.1.0                                 |
|   \\  /    A nd           | Web:      www.OpenFOAM.org                      |
|    \\/     M anipulation  |                                                 |
\*---------------------------------------------------------------------------*/
FoamFile
{
    version     2.0;
    format      ascii;
    class       volScalarField;
    location    "32120";
    object      kr_w;
}
// * * * * * * * * * * * * * * * * * * * * * * * * * * * * * * * * * * * * * //

dimensions      [0 0 0 0 0 0 0];

internalField   nonuniform List<scalar> 
8000
(
0.433496
0.412721
0.387548
0.361448
0.336241
0.312718
0.291144
0.271531
0.253774
0.23771
0.223172
0.210016
0.198109
0.187322
0.177529
0.168613
0.160467
0.153001
0.146125
0.139759
0.133832
0.128282
0.123049
0.118081
0.113328
0.108737
0.104258
0.0998338
0.0954015
0.090886
0.0861948
0.0812061
0.0757491
0.0695634
0.0622219
0.0530036
0.04079
0.0249149
0.0090112
0.0012443
0.412723
0.394312
0.371916
0.348408
0.325381
0.303601
0.283389
0.264827
0.247876
0.232428
0.218371
0.205601
0.194011
0.183488
0.173919
0.165196
0.15722
0.149906
0.143168
0.13693
0.131125
0.125693
0.120581
0.115737
0.111114
0.106665
0.102339
0.0980813
0.0938263
0.0894965
0.0849941
0.0801915
0.0749114
0.0688879
0.0616878
0.0525808
0.0404351
0.0246015
0.00882528
0.00120857
0.387549
0.371916
0.352707
0.332189
0.311709
0.291998
0.273424
0.256138
0.240168
0.225477
0.212021
0.19974
0.188557
0.17838
0.169109
0.160648
0.152909
0.145809
0.139269
0.133217
0.127592
0.122338
0.117406
0.112752
0.108331
0.1041
0.100009
0.0960028
0.0920127
0.0879537
0.0837182
0.0791676
0.0741155
0.0682891
0.0612507
0.052263
0.0401839
0.0243799
0.00869407
0.00118329
0.361448
0.348408
0.332189
0.314525
0.296538
0.2789
0.261997
0.246027
0.231077
0.217189
0.204382
0.19264
0.181915
0.172135
0.163214
0.155066
0.147614
0.140776
0.134477
0.128654
0.12325
0.118218
0.113513
0.109098
0.104935
0.100984
0.0972001
0.0935263
0.089889
0.0861918
0.0823104
0.078088
0.0733234
0.0677356
0.0608832
0.0520242
0.0400096
0.0242222
0.00859705
0.00116407
0.336242
0.325382
0.31171
0.296538
0.280784
0.265042
0.249688
0.234944
0.220958
0.207841
0.195667
0.184465
0.174212
0.164852
0.15631
0.148512
0.141378
0.134831
0.128802
0.123235
0.118078
0.113293
0.108843
0.104697
0.100829
0.0972056
0.0937887
0.0905238
0.0873319
0.0841008
0.0806801
0.0768809
0.072479
0.0671817
0.0605454
0.0518267
0.0398739
0.0240911
0.00850973
0.00114567
0.312719
0.303602
0.291999
0.2789
0.265042
0.250934
0.236919
0.223238
0.210092
0.197644
0.186026
0.175314
0.165513
0.156573
0.148426
0.140994
0.134194
0.127953
0.122207
0.116904
0.112003
0.107469
0.103279
0.0994112
0.0958508
0.0925805
0.0895748
0.0867883
0.0841415
0.081504
0.0786844
0.0754369
0.0714986
0.0665611
0.0601808
0.0516183
0.0397255
0.0239388
0.00840274
0.00112204
0.291145
0.28339
0.273424
0.261997
0.249688
0.236919
0.224
0.211184
0.198693
0.186735
0.175515
0.165193
0.155792
0.147257
0.139506
0.132442
0.125979
0.120044
0.114577
0.109531
0.104872
0.100573
0.0966209
0.0930084
0.089737
0.0868114
0.0842313
0.0819762
0.0799804
0.0781003
0.0760853
0.0735793
0.0702532
0.0657764
0.0597104
0.0513289
0.0394982
0.0237071
0.00824242
0.0010867
0.271532
0.264828
0.256139
0.246027
0.234945
0.223239
0.211184
0.199008
0.186918
0.175151
0.16403
0.153931
0.144862
0.136712
0.129345
0.12264
0.116504
0.11086
0.105652
0.100835
0.0963809
0.092271
0.0885009
0.0850791
0.082028
0.0793829
0.0771863
0.0754716
0.0742255
0.073323
0.0724429
0.0709981
0.0685338
0.0646832
0.0590262
0.0508691
0.0391126
0.0233301
0.00799369
0.00103358
0.253774
0.247876
0.240168
0.231077
0.220958
0.210092
0.198693
0.186919
0.174891
0.162777
0.15106
0.140936
0.132134
0.124345
0.117348
0.110989
0.105158
0.0997754
0.0947826
0.0901386
0.085817
0.0818055
0.0781074
0.0747442
0.0717598
0.0692264
0.0672499
0.0659659
0.0655052
0.065882
0.0667668
0.0670633
0.0659769
0.0630685
0.0579894
0.050135
0.0384826
0.0227415
0.00762574
0.00095865
0.237711
0.232428
0.225477
0.217189
0.207841
0.197644
0.186735
0.175151
0.162778
0.14924
0.13419
0.123817
0.115295
0.107891
0.101269
0.095236
0.0896666
0.0844742
0.079597
0.0749918
0.0706307
0.0665015
0.0626102
0.0589856
0.0556848
0.05281
0.0505369
0.0491624
0.0491669
0.0511997
0.0555745
0.0600289
0.0618494
0.0606212
0.0564441
0.0490264
0.0375312
0.0218875
0.00711998
0.000861606
0.223173
0.218372
0.212021
0.204382
0.195668
0.186026
0.175515
0.16403
0.15106
0.13419
0.0052167
0.00390652
0.00439611
0.00464704
0.00472696
0.00469565
0.00458814
0.00442815
0.00423294
0.00401673
0.00379131
0.00356751
0.00335649
0.00317035
0.00302529
0.00294642
0.0029814
0.00324182
0.00407044
0.00685891
0.0526898
0.0566481
0.0586089
0.0580621
0.0545469
0.0475446
0.0362255
0.0207439
0.00647808
0.000746816
0.210017
0.205602
0.19974
0.19264
0.184465
0.175315
0.165193
0.153931
0.140936
0.123817
0.0039065
0.000266023
0.000182487
0.000207396
0.000221832
0.000226464
0.000224001
0.000216523
0.000205699
0.000192951
0.000179337
0.000166027
0.000153785
0.000143659
0.000136667
0.000134444
0.000140381
0.00016208
0.000221306
0.000380474
0.0496842
0.0538334
0.0557832
0.0555358
0.0524381
0.0457501
0.0345815
0.0193206
0.00572492
0.000622649
0.19811
0.194011
0.188558
0.181916
0.174213
0.165513
0.155792
0.144862
0.132134
0.115295
0.00439625
0.000182489
1.01832e-05
6.57701e-06
7.27238e-06
7.7347e-06
7.71154e-06
7.5544e-06
7.18456e-06
6.73859e-06
6.24238e-06
5.72688e-06
5.21406e-06
4.84431e-06
4.64974e-06
4.56874e-06
4.79981e-06
5.74768e-06
7.87828e-06
1.23978e-05
0.0467409
0.0511765
0.0531323
0.0530397
0.0501944
0.0437082
0.0326403
0.0176558
0.00490389
0.000499137
0.187322
0.183488
0.17838
0.172136
0.164853
0.156573
0.147257
0.136712
0.124345
0.107891
0.00464703
0.000207396
6.57699e-06
2.75249e-07
2.13535e-07
2.27869e-07
2.34041e-07
2.37607e-07
2.36162e-07
2.3241e-07
2.26715e-07
1.10513e-07
1.00254e-07
9.48282e-08
9.30921e-08
9.23984e-08
9.75359e-08
1.18124e-07
1.574e-07
3.3289e-07
0.0438598
0.0485764
0.050558
0.0505555
0.047853
0.0414686
0.0304483
0.0158057
0.00406749
0.000385293
0.177529
0.173919
0.16911
0.163215
0.156311
0.148426
0.139507
0.129345
0.117349
0.101269
0.00472695
0.000221832
7.27236e-06
2.13534e-07
5.7239e-09
3.29636e-09
3.57886e-09
3.84833e-09
4.04976e-09
4.20986e-09
4.3308e-09
1.34649e-09
1.22067e-09
1.18186e-09
1.18675e-09
1.19073e-09
1.25831e-09
1.51872e-09
1.95338e-09
5.6597e-09
0.041042
0.0460025
0.0480182
0.0480675
0.0454299
0.039064
0.028049
0.013838
0.00326719
0.000287253
0.168613
0.165196
0.160648
0.155067
0.148513
0.140994
0.132443
0.122641
0.110989
0.0952362
0.00469564
0.000226463
7.73468e-06
2.27868e-07
3.29634e-09
5.7359e-11
3.3716e-11
3.82958e-11
4.26257e-11
4.66557e-11
5.03414e-11
1.15618e-11
1.04664e-11
1.03672e-11
1.06155e-11
1.07441e-11
1.13349e-11
1.3559e-11
1.68907e-11
6.34038e-11
0.0382837
0.0434417
0.04549
0.0455616
0.0429285
0.0365133
0.025483
0.01183
0.00254485
0.000207698
0.160468
0.157221
0.152909
0.147615
0.141379
0.134194
0.12598
0.116504
0.105158
0.0896668
0.00458813
0.000224001
7.71151e-06
2.34041e-07
3.57884e-09
3.37156e-11
4.44037e-13
2.69946e-13
3.15418e-13
3.62048e-13
4.07662e-13
7.57022e-14
6.84216e-14
6.9117e-14
7.19746e-14
7.33114e-14
7.7166e-14
9.13685e-14
1.1095e-13
5.13694e-13
0.0355752
0.0408829
0.0429558
0.0430225
0.0403435
0.0338267
0.0227944
0.00986593
0.00192726
0.000146364
0.153001
0.149906
0.14581
0.140776
0.134831
0.127953
0.120044
0.110861
0.0997756
0.0844744
0.00442815
0.000216522
7.55438e-06
2.37607e-07
3.84831e-09
3.82956e-11
2.69946e-13
2.85765e-15
1.64156e-15
2.05116e-15
2.41947e-15
1.20656e-16
1.20656e-16
1.20656e-16
1.20656e-16
1.20656e-16
1.20656e-16
1.20656e-16
2.50838e-16
3.22279e-15
0.0329017
0.0383119
0.040397
0.0404315
0.0376642
0.0310109
0.0200405
0.00803074
0.00142487
0.000101088
0.146125
0.143169
0.13927
0.134477
0.128803
0.122207
0.114577
0.105652
0.0947828
0.0795972
0.00423293
0.000205698
7.18454e-06
2.36162e-07
4.04973e-09
4.26253e-11
3.15418e-13
1.64156e-15
0
0
0
0
0
0
0
0
0
0
0
0
0.0302436
0.0357098
0.0377914
0.0377669
0.0348776
0.0280776
0.0173008
0.00639687
0.00103419
6.88676e-05
0.139759
0.136931
0.133218
0.128654
0.123235
0.116904
0.109532
0.100836
0.0901388
0.074992
0.00401673
0.00019295
6.73857e-06
2.32409e-07
4.20983e-09
4.66552e-11
3.62048e-13
2.05116e-15
0
0
0
0
0
0
0
0
0
0
0
0
0.0275784
0.0330532
0.0351127
0.035005
0.0319731
0.0250531
0.0146773
0.00501007
0.000742271
4.66342e-05
0.133833
0.131126
0.127592
0.123251
0.118079
0.112003
0.104872
0.0963812
0.0858172
0.0706309
0.0037913
0.000179337
6.24237e-06
2.26714e-07
4.33078e-09
5.0341e-11
4.07637e-13
2.41947e-15
0
0
0
0
0
0
0
0
0
0
0
0
0.0248837
0.0303154
0.0323329
0.0321235
0.0289495
0.0219911
0.01225
0.00388268
0.000531547
3.16766e-05
0.128282
0.125694
0.122338
0.118218
0.113293
0.10747
0.100574
0.0922713
0.0818057
0.0665017
0.00356751
0.000166026
5.72687e-06
1.10512e-07
1.34648e-09
1.15616e-11
7.57022e-14
1.20656e-16
0
0
0
0
0
0
0
0
0
0
0
0
0.0221426
0.0274708
0.0294257
0.0291085
0.0258258
0.0189823
0.0100929
0.00299894
0.000383765
2.18217e-05
0.123049
0.120581
0.117407
0.113514
0.108843
0.103279
0.0966213
0.0885012
0.0781077
0.0626104
0.00335649
0.000153785
5.21405e-06
1.00254e-07
1.22066e-09
1.04662e-11
6.84216e-14
1.20656e-16
0
0
0
0
0
0
0
0
0
0
0
0
0.0193547
0.024503
0.0263761
0.0259645
0.0226538
0.0161535
0.00826383
0.00232669
0.000282623
1.54529e-05
0.118082
0.115737
0.112753
0.109099
0.104698
0.0994116
0.0930087
0.0850794
0.0747444
0.0589857
0.00317035
0.000143659
4.8443e-06
9.48278e-08
1.18185e-09
1.03671e-11
6.9117e-14
1.20656e-16
0
0
0
0
0
0
0
0
0
0
0
0
0.0165508
0.0214195
0.0231938
0.0227299
0.0195292
0.013642
0.00678087
0.00182911
0.00021505
1.14344e-05
0.113328
0.111115
0.108332
0.104936
0.100829
0.0958512
0.0897373
0.0820283
0.07176
0.0556849
0.00302529
0.000136667
4.64973e-06
9.30918e-08
1.18674e-09
1.06154e-11
7.19333e-14
1.20656e-16
0
0
0
0
0
0
0
0
0
0
0
0
0.0138075
0.0182713
0.0199338
0.0194921
0.0165887
0.0115033
0.0056216
0.00147214
0.000171411
9.00602e-06
0.108737
0.106666
0.1041
0.100985
0.097206
0.0925809
0.0868117
0.0793832
0.0692266
0.0528101
0.00294642
0.000134444
4.56873e-06
9.23982e-08
1.19073e-09
1.0744e-11
7.33114e-14
1.20656e-16
0
0
0
0
0
0
0
0
0
0
0
0
0.0112457
0.0151693
0.0167113
0.0163904
0.0139801
0.00972974
0.00473987
0.00122682
0.000145057
7.68841e-06
0.104258
0.10234
0.10001
0.0972005
0.0937891
0.0895751
0.0842317
0.0771866
0.0672501
0.0505371
0.0029814
0.000140381
4.7998e-06
9.75357e-08
1.2583e-09
1.13348e-11
7.7166e-14
1.20656e-16
0
0
0
0
0
0
0
0
0
0
0
0
0.0089452
0.0122675
0.0136903
0.0135855
0.0117601
0.00828783
0.004082
0.00106879
0.000131651
7.21246e-06
0.099834
0.0980817
0.0960032
0.0935267
0.0905242
0.0867887
0.0819766
0.0754719
0.0659661
0.0491625
0.00324182
0.00016208
5.74768e-06
1.18124e-07
1.51871e-09
1.35589e-11
9.13685e-14
1.20656e-16
0
0
0
0
0
0
0
0
0
0
0
0
0.00690354
0.00961664
0.0109672
0.0111241
0.00986002
0.00711571
0.00359466
0.00097708
0.00012846
7.4649e-06
0.0954017
0.0938267
0.0920131
0.0898893
0.0873322
0.0841419
0.0799807
0.0742258
0.0655054
0.0491671
0.00407045
0.000221306
7.87827e-06
1.574e-07
1.95338e-09
1.68907e-11
1.1095e-13
2.50838e-16
0
0
0
0
0
0
0
0
0
0
0
0
0.00508859
0.00718722
0.00848854
0.00892193
0.00819379
0.00613173
0.00322393
0.000932011
0.000133509
8.42415e-06
0.0908863
0.0894969
0.0879541
0.0861921
0.0841012
0.0815044
0.0781006
0.0733232
0.0658822
0.0511998
0.00685907
0.000380481
1.23979e-05
3.32891e-07
5.6597e-09
6.34038e-11
5.13694e-13
3.22279e-15
0
0
0
0
0
0
0
0
0
0
0
0
0.00340553
0.00491749
0.00617859
0.0068812
0.00665776
0.00523869
0.00290803
0.000910688
0.000144145
1.00373e-05
0.086195
0.0849945
0.0837186
0.0823108
0.0806804
0.0786847
0.0760855
0.0724431
0.066767
0.0555746
0.0526899
0.0496843
0.046741
0.0438599
0.041042
0.0382837
0.0355753
0.0329017
0.0302436
0.0275785
0.0248838
0.0221427
0.0193547
0.0165507
0.0138075
0.0112457
0.00894522
0.00690356
0.0050886
0.00340554
0.00238402
0.00296983
0.00404546
0.00493382
0.00515102
0.00433216
0.00257127
0.000880132
0.000154436
1.22141e-05
0.0812063
0.0801918
0.0791679
0.0780882
0.0768812
0.0754372
0.0735796
0.0709983
0.0670635
0.0600291
0.0566483
0.0538335
0.0511766
0.0485765
0.0460026
0.0434418
0.040883
0.0383119
0.0357099
0.0330533
0.0303155
0.0274709
0.0245031
0.0214196
0.0182713
0.0151693
0.0122675
0.00961667
0.00718724
0.00491749
0.00296982
0.00225667
0.00256369
0.00324742
0.00367916
0.00334615
0.00213608
0.000794462
0.000160036
1.49032e-05
0.0757493
0.0749118
0.0741157
0.0733236
0.0724792
0.0714988
0.0702534
0.068534
0.0659771
0.0618496
0.058609
0.0557833
0.0531324
0.0505581
0.0480183
0.0454901
0.0429559
0.0403971
0.0377914
0.0351128
0.0323329
0.0294258
0.0263761
0.0231939
0.0199339
0.0167114
0.0136903
0.0109673
0.00848858
0.0061786
0.00404545
0.00256368
0.00198998
0.00210448
0.00240344
0.00232028
0.00156797
0.000657018
0.000158371
1.77448e-05
0.0695636
0.0688882
0.0682893
0.0677358
0.0671819
0.0665613
0.0657766
0.0646833
0.0630686
0.0606214
0.0580622
0.0555359
0.0530398
0.0505556
0.0480676
0.0455617
0.0430226
0.0404316
0.037767
0.035005
0.0321236
0.0291086
0.0259645
0.0227299
0.0194921
0.0163905
0.0135856
0.0111242
0.00892196
0.00688121
0.00493381
0.0032474
0.00210447
0.00159889
0.00151069
0.00144879
0.00106603
0.000514626
0.000149198
2.04219e-05
0.0622221
0.0616881
0.0612509
0.0608834
0.0605455
0.060181
0.0597106
0.0590264
0.0579896
0.0564443
0.054547
0.0524382
0.0501945
0.047853
0.04543
0.0429285
0.0403435
0.0376643
0.0348777
0.0319731
0.0289496
0.0258258
0.0226538
0.0195293
0.0165887
0.0139801
0.0117601
0.00986004
0.0081938
0.00665776
0.00515101
0.00367914
0.00240343
0.00151068
0.001086
0.000911763
0.000694904
0.000383927
0.000134106
2.26888e-05
0.0530038
0.052581
0.0522632
0.0520244
0.0518268
0.0516184
0.051329
0.0508693
0.0501351
0.0490265
0.0475447
0.0457502
0.0437083
0.0414687
0.0390641
0.0365134
0.0338267
0.0310109
0.0280777
0.0250532
0.0219912
0.0189824
0.0161536
0.0136421
0.0115034
0.00972977
0.00828786
0.00711573
0.00613174
0.00523869
0.00433216
0.00334614
0.00232028
0.00144878
0.000911763
0.000639745
0.000464046
0.000280744
0.000116402
2.44458e-05
0.0407901
0.0404352
0.040184
0.0400097
0.039874
0.0397256
0.0394983
0.0391128
0.0384827
0.0375313
0.0362256
0.0345816
0.0326404
0.0304484
0.028049
0.025483
0.0227944
0.0200405
0.0173008
0.0146773
0.01225
0.010093
0.0082639
0.00678092
0.00562164
0.0047399
0.00408201
0.00359467
0.00322395
0.00290804
0.00257128
0.00213608
0.00156798
0.00106603
0.000694906
0.000464047
0.000321399
0.0002048
9.83423e-05
2.55692e-05
0.024915
0.0246016
0.02438
0.0242223
0.0240912
0.0239388
0.0237071
0.0233301
0.0227415
0.0218875
0.0207439
0.0193207
0.0176558
0.0158057
0.013838
0.01183
0.00986593
0.00803073
0.00639686
0.00501007
0.00388268
0.00299895
0.0023267
0.00182911
0.00147214
0.00122682
0.00106879
0.000977084
0.000932016
0.000910694
0.000880139
0.000794469
0.000657024
0.00051463
0.000383929
0.000280746
0.000204801
0.000140904
7.81906e-05
2.52692e-05
0.00901123
0.00882531
0.00869411
0.00859703
0.00850971
0.00840274
0.00824242
0.00799369
0.00762574
0.00711998
0.00647808
0.00572493
0.0049039
0.00406749
0.00326719
0.00254485
0.00192726
0.00142487
0.00103419
0.000742269
0.000531547
0.000383766
0.000282623
0.000215051
0.000171411
0.000145057
0.000131651
0.000128461
0.00013351
0.000144146
0.000154437
0.000160039
0.000158373
0.0001492
0.000134108
0.000116403
9.8343e-05
7.81909e-05
5.20007e-05
2.14623e-05
0.00124431
0.00120857
0.0011833
0.00116406
0.00114566
0.00112204
0.0010867
0.00103358
0.000958651
0.000861607
0.000746817
0.00062265
0.000499138
0.000385293
0.000287253
0.000207698
0.000146364
0.000101087
6.88673e-05
4.6634e-05
3.16765e-05
2.18216e-05
1.54529e-05
1.14344e-05
9.00601e-06
7.6884e-06
7.21247e-06
7.46492e-06
8.4242e-06
1.00374e-05
1.22142e-05
1.49035e-05
1.7745e-05
2.04222e-05
2.26891e-05
2.44461e-05
2.55694e-05
2.52694e-05
2.14624e-05
1.19745e-05
0.521366
0.497854
0.465185
0.429666
0.395439
0.364185
0.336287
0.311609
0.289839
0.270625
0.253628
0.238527
0.225043
0.212954
0.202071
0.192232
0.183293
0.175124
0.167622
0.160697
0.154267
0.148261
0.142613
0.137266
0.132163
0.12725
0.122472
0.117771
0.113083
0.108334
0.103438
0.0982892
0.0927518
0.0866489
0.0797413
0.0716782
0.0617574
0.0479182
0.026402
0.00546411
0.497859
0.474489
0.44429
0.412194
0.381158
0.352488
0.326578
0.303406
0.282772
0.264422
0.248082
0.233485
0.2204
0.208636
0.198025
0.188418
0.179679
0.171688
0.164349
0.157574
0.151288
0.145422
0.139916
0.134714
0.129765
0.125017
0.120417
0.115907
0.111422
0.106883
0.1022
0.0972587
0.091917
0.0859917
0.0792389
0.0713055
0.0614927
0.0477379
0.0262605
0.00540549
0.465188
0.44429
0.418154
0.390401
0.363201
0.337634
0.314137
0.29281
0.273582
0.256304
0.240783
0.226824
0.214253
0.202918
0.192672
0.183382
0.174918
0.167177
0.160068
0.15351
0.147432
0.141772
0.136476
0.131493
0.126775
0.122275
0.11794
0.113713
0.109521
0.105282
0.10089
0.096222
0.0911245
0.0854072
0.0788228
0.0710192
0.0613061
0.0476274
0.0261801
0.00537067
0.429668
0.412193
0.390402
0.366953
0.343525
0.321057
0.300019
0.280605
0.262853
0.246709
0.232064
0.218803
0.206812
0.19597
0.186152
0.177235
0.169103
0.161666
0.154838
0.148546
0.142725
0.137322
0.132288
0.127579
0.123154
0.11897
0.114979
0.111118
0.107314
0.103466
0.0994555
0.095136
0.09034
0.084868
0.07847
0.0707987
0.0611777
0.0475646
0.0261359
0.00534821
0.395439
0.381159
0.363202
0.343525
0.32345
0.303795
0.285033
0.267417
0.251061
0.235991
0.222192
0.209629
0.198236
0.187917
0.178561
0.170051
0.16229
0.155193
0.14868
0.142686
0.137154
0.132038
0.127298
0.1229
0.118812
0.114997
0.111414
0.108003
0.104681
0.101333
0.0978101
0.0939337
0.0895115
0.0843323
0.0781455
0.0706129
0.0610783
0.0475189
0.0260961
0.00532383
0.364186
0.352489
0.337635
0.321057
0.303795
0.286546
0.269759
0.25371
0.23856
0.224413
0.211357
0.199436
0.188619
0.178822
0.169934
0.161853
0.154485
0.147746
0.141566
0.135885
0.130655
0.125839
0.121406
0.117332
0.1136
0.110186
0.10706
0.104171
0.101435
0.0987151
0.0958201
0.0925129
0.0885617
0.0837397
0.077799
0.0704178
0.0609681
0.0474513
0.0260209
0.00528028
0.336287
0.326579
0.314138
0.300019
0.285033
0.26976
0.254597
0.239811
0.225596
0.212143
0.199647
0.188253
0.177954
0.168652
0.16023
0.152584
0.145616
0.139243
0.133399
0.128032
0.123099
0.118573
0.114434
0.110673
0.107285
0.104271
0.101623
0.0993134
0.0972683
0.0953377
0.0932683
0.0907125
0.0873727
0.0830013
0.07736
0.0701544
0.060796
0.0473141
0.0258643
0.00519828
0.311609
0.303406
0.292811
0.280606
0.267417
0.25371
0.239811
0.225953
0.212348
0.19924
0.186971
0.17592
0.166052
0.157212
0.149254
0.142044
0.135476
0.129467
0.123953
0.118885
0.11423
0.109965
0.106082
0.102585
0.0994907
0.0968261
0.0946237
0.0929048
0.0916438
0.0907066
0.0897703
0.088261
0.0857606
0.0819892
0.0767332
0.0697478
0.0605014
0.047054
0.0255767
0.00505854
0.289839
0.282773
0.273583
0.262853
0.251062
0.23856
0.225596
0.212348
0.198953
0.185598
0.172799
0.161816
0.152303
0.143924
0.136437
0.129672
0.12351
0.117863
0.112666
0.107874
0.103457
0.0993997
0.095701
0.0923765
0.0894615
0.0870148
0.0851234
0.0838983
0.0834433
0.0837526
0.0845002
0.0846333
0.0834207
0.0805222
0.0758001
0.0691133
0.0600206
0.0466174
0.0251101
0.00484512
0.270626
0.264423
0.256304
0.246708
0.235991
0.224413
0.212143
0.199241
0.185598
0.170829
0.154589
0.143476
0.134402
0.12658
0.119642
0.113378
0.107653
0.102374
0.0974775
0.0929173
0.0886651
0.0847072
0.0810456
0.0777009
0.0747186
0.0721806
0.070226
0.0690894
0.0691567
0.0709622
0.0747653
0.0785108
0.0798099
0.0783659
0.0744389
0.0681746
0.059301
0.0459601
0.0244263
0.00454945
0.253629
0.248083
0.240784
0.232064
0.222192
0.211358
0.199648
0.186972
0.172799
0.154589
0.00676418
0.00529793
0.00611321
0.00662675
0.00691411
0.00705199
0.00708482
0.00704204
0.0069456
0.00681373
0.00666239
0.00650737
0.00636568
0.00625848
0.00621444
0.00628119
0.00655011
0.00724411
0.00907797
0.0150088
0.0716829
0.0754063
0.0769256
0.0761056
0.072781
0.0669422
0.0583287
0.0450597
0.0235036
0.00417373
0.238527
0.233486
0.226824
0.218803
0.209629
0.199436
0.188254
0.17592
0.161816
0.143476
0.00529792
0.000431446
0.000308062
0.000362592
0.000402754
0.000427793
0.000441165
0.000445598
0.000443433
0.00043667
0.000427316
0.000416988
0.000407864
0.000401921
0.000402461
0.000414376
0.000447344
0.00052386
0.000707694
0.00118898
0.0683513
0.0727829
0.0743944
0.0738724
0.0709528
0.0654789
0.0571313
0.0439233
0.0223406
0.00373176
0.225044
0.220401
0.214254
0.206812
0.198236
0.188619
0.177955
0.166052
0.152303
0.134403
0.0061132
0.000308061
2.00613e-05
1.35348e-05
1.57603e-05
1.75282e-05
1.86292e-05
1.91915e-05
1.93569e-05
1.91606e-05
1.88656e-05
1.84052e-05
1.79481e-05
1.7664e-05
1.77662e-05
1.84073e-05
2.01988e-05
2.39765e-05
3.23938e-05
4.9369e-05
0.0652369
0.0703364
0.0720299
0.0716756
0.0690302
0.063854
0.0557569
0.0425765
0.0209515
0.00324644
0.212954
0.208636
0.202918
0.195971
0.187918
0.178822
0.168653
0.157213
0.143924
0.12658
0.00662675
0.000362591
1.35347e-05
7.94868e-07
4.57795e-07
6.09943e-07
6.48555e-07
6.75755e-07
6.94703e-07
7.0485e-07
6.02699e-07
6.02352e-07
6.02204e-07
6.04621e-07
6.15006e-07
6.36009e-07
6.82404e-07
7.6767e-07
1.04549e-06
1.42873e-06
0.0623
0.0679847
0.0697556
0.0695086
0.067057
0.0621254
0.0542568
0.0410506
0.0193604
0.00274535
0.202071
0.198025
0.192673
0.186153
0.178561
0.169935
0.160231
0.149254
0.136437
0.119642
0.0069141
0.000402753
1.57603e-05
4.57793e-07
1.20323e-08
9.24679e-09
1.03077e-08
1.12719e-08
1.21287e-08
1.28585e-08
1.05737e-08
1.09561e-08
1.13378e-08
1.17174e-08
1.21592e-08
1.26709e-08
1.34143e-08
1.44492e-08
1.94818e-08
2.44702e-08
0.0595153
0.0656997
0.0675386
0.0673662
0.0650603
0.060339
0.052677
0.0393739
0.0175968
0.00225599
0.192232
0.188418
0.183382
0.177235
0.170051
0.161853
0.152585
0.142044
0.129673
0.113378
0.00705198
0.000427793
1.75281e-05
6.09941e-07
9.24672e-09
1.64497e-10
9.86009e-11
1.13391e-10
1.28287e-10
1.42425e-10
1.17191e-10
1.25946e-10
1.34736e-10
1.43117e-10
1.51381e-10
1.59073e-10
1.66932e-10
1.74137e-10
2.30861e-10
2.7283e-10
0.0568666
0.0634683
0.0653632
0.0652461
0.0630593
0.0585311
0.0510543
0.0375671
0.0156963
0.00180197
0.183293
0.17968
0.174919
0.169104
0.162291
0.154485
0.145616
0.135476
0.12351
0.107653
0.00708481
0.000441164
1.86291e-05
6.48553e-07
1.03076e-08
9.85999e-11
1.3076e-12
8.02389e-13
9.49656e-13
1.10223e-12
9.21026e-13
1.02434e-12
1.12933e-12
1.22893e-12
1.32174e-12
1.39896e-12
1.45875e-12
1.48606e-12
1.9394e-12
2.19602e-12
0.0543389
0.0612819
0.0632207
0.063148
0.0610701
0.0567319
0.049414
0.0356413
0.0137053
0.00140055
0.175124
0.171688
0.167177
0.161666
0.155193
0.147747
0.139244
0.129468
0.117863
0.102375
0.00704204
0.000445597
1.91915e-05
6.75753e-07
1.12719e-08
1.1339e-10
8.02389e-13
8.81743e-15
5.50256e-15
6.61387e-15
5.65497e-15
6.52179e-15
7.3251e-15
8.16017e-15
8.91903e-15
9.52549e-15
9.88428e-15
9.86841e-15
1.2707e-14
1.39929e-14
0.051919
0.0591338
0.0611065
0.0610747
0.0591082
0.0549677
0.0477667
0.0335979
0.011687
0.00106161
0.167623
0.164349
0.160068
0.154839
0.14868
0.141567
0.1334
0.123953
0.112666
0.0974778
0.0069456
0.000443432
1.93568e-05
6.94701e-07
1.21286e-08
1.28286e-10
9.49647e-13
5.50256e-15
0
0
0
0
0
0
0
0
0
0
0
0
0.0495955
0.0570186
0.0590192
0.0590321
0.0571905
0.0532622
0.0461004
0.0314302
0.0097227
0.000787952
0.160698
0.157575
0.15351
0.148546
0.142686
0.135886
0.128032
0.118886
0.107874
0.0929176
0.00681373
0.000436669
1.91606e-05
7.04849e-07
1.28584e-08
1.42424e-10
1.10223e-12
6.61387e-15
0
0
0
0
0
0
0
0
0
0
0
0
0.0473614
0.0549341
0.0569619
0.0570309
0.0553371
0.051635
0.0443755
0.0291299
0.00790303
0.000576406
0.154268
0.151289
0.147432
0.142726
0.137154
0.130656
0.1231
0.11423
0.103457
0.0886654
0.00666239
0.000427316
1.88655e-05
6.02697e-07
1.05736e-08
1.1719e-10
9.21026e-13
5.65497e-15
0
0
0
0
0
0
0
0
0
0
0
0
0.0452139
0.0528822
0.054943
0.0550871
0.0535714
0.0500974
0.0425919
0.0266974
0.00630815
0.000419468
0.148261
0.145423
0.141773
0.137323
0.132038
0.125839
0.118574
0.109965
0.0994
0.0847075
0.00650737
0.000416988
1.84052e-05
6.0235e-07
1.0956e-08
1.25945e-10
1.02434e-12
6.52179e-15
0
0
0
0
0
0
0
0
0
0
0
0
0.0431557
0.0508698
0.0529769
0.0532228
0.0519169
0.0486436
0.0407601
0.0241567
0.00498734
0.000307336
0.142614
0.139916
0.136477
0.132288
0.127299
0.121406
0.114435
0.106082
0.0957014
0.0810459
0.00636568
0.000407864
1.79481e-05
6.02203e-07
1.13378e-08
1.34736e-10
1.12933e-12
7.3251e-15
0
0
0
0
0
0
0
0
0
0
0
0
0.0411912
0.0489063
0.0510825
0.0514621
0.0503898
0.0472346
0.0388841
0.0215717
0.00395076
0.000229943
0.137266
0.134715
0.131494
0.127579
0.122901
0.117333
0.110673
0.102586
0.0923769
0.0777012
0.00625848
0.00040192
1.7664e-05
6.0462e-07
1.17174e-08
1.43116e-10
1.22893e-12
8.16017e-15
0
0
0
0
0
0
0
0
0
0
0
0
0.0393172
0.0469955
0.0492747
0.0498217
0.048983
0.0457788
0.0369724
0.0190553
0.00317773
0.000178494
0.132163
0.129766
0.126776
0.123155
0.118812
0.1136
0.107286
0.0994912
0.0894618
0.0747188
0.00621444
0.000402461
1.77661e-05
6.15005e-07
1.21592e-08
1.5138e-10
1.32174e-12
8.91903e-15
0
0
0
0
0
0
0
0
0
0
0
0
0.037501
0.0451144
0.047545
0.0482891
0.0476436
0.0442474
0.0350519
0.0167592
0.00263312
0.000146248
0.12725
0.125018
0.122276
0.118971
0.114998
0.110186
0.104272
0.0968265
0.0870151
0.0721807
0.00628119
0.000414376
1.84072e-05
6.36008e-07
1.26708e-08
1.59072e-10
1.39896e-12
9.52549e-15
0
0
0
0
0
0
0
0
0
0
0
0
0.0356425
0.0431733
0.0458203
0.0467835
0.0462321
0.0426644
0.0331726
0.0148384
0.00228139
0.00012867
0.122472
0.120418
0.117941
0.114979
0.111415
0.10706
0.101624
0.0946241
0.0851237
0.0702261
0.00655011
0.000447343
2.01988e-05
6.82404e-07
1.34143e-08
1.66931e-10
1.45875e-12
9.88428e-15
0
0
0
0
0
0
0
0
0
0
0
0
0.0336115
0.0409567
0.0438961
0.0450936
0.0446146
0.0410393
0.0314054
0.0134054
0.00209429
0.000123317
0.117771
0.115908
0.113713
0.111119
0.108003
0.104172
0.0993138
0.0929052
0.0838986
0.0690895
0.00724411
0.000523859
2.39765e-05
7.67669e-07
1.44492e-08
1.74136e-10
1.48606e-12
9.86841e-15
0
0
0
0
0
0
0
0
0
0
0
0
0.0312885
0.0382296
0.0414778
0.042997
0.042751
0.0393675
0.0298264
0.0125037
0.0020539
0.000129708
0.113083
0.111422
0.109522
0.107314
0.104681
0.101435
0.0972687
0.0916442
0.0834436
0.0691568
0.00907797
0.000707693
3.23937e-05
1.04549e-06
1.94818e-08
2.3086e-10
1.93936e-12
1.2707e-14
0
0
0
0
0
0
0
0
0
0
0
0
0.0283944
0.0346764
0.0382946
0.0403126
0.0405316
0.0376013
0.0284807
0.0121093
0.00215217
0.000149259
0.108334
0.106884
0.105282
0.103467
0.101333
0.0987155
0.0953381
0.090707
0.083753
0.0709623
0.0150088
0.00118898
4.9369e-05
1.42873e-06
2.44702e-08
2.7283e-10
2.19594e-12
1.39929e-14
0
0
0
0
0
0
0
0
0
0
0
0
0.0241703
0.0295838
0.0337803
0.0366434
0.037696
0.0355892
0.0273224
0.0121363
0.00238514
0.000184935
0.103439
0.102201
0.100891
0.0994559
0.0978105
0.0958205
0.0932687
0.0897707
0.0845005
0.0747655
0.0716831
0.0683514
0.065237
0.0623
0.0595153
0.0568666
0.0543389
0.0519189
0.0495955
0.0473614
0.0452139
0.0431557
0.0411912
0.0393172
0.037501
0.0356425
0.0336115
0.0312884
0.0283944
0.0241703
0.0205941
0.0230349
0.0274007
0.0313881
0.03376
0.0330068
0.026165
0.0124233
0.00273597
0.000241165
0.0982896
0.0972593
0.0962225
0.0951364
0.0939342
0.0925134
0.0907129
0.0882614
0.0846336
0.078511
0.0754065
0.0727831
0.0703365
0.0679848
0.0656998
0.0634684
0.061282
0.0591339
0.0570187
0.0549342
0.0528823
0.0508699
0.0489064
0.0469955
0.0451144
0.0431734
0.0409567
0.0382296
0.0346764
0.0295837
0.0230348
0.0202411
0.0217057
0.0252412
0.0285794
0.0294686
0.0246543
0.0127959
0.00319168
0.000323448
0.0927521
0.0919175
0.0911249
0.0903404
0.089512
0.0885621
0.0873731
0.0857609
0.083421
0.0798102
0.0769258
0.0743946
0.07203
0.0697557
0.0675388
0.0653634
0.0632208
0.0611066
0.0590193
0.056962
0.054943
0.0529769
0.0510825
0.0492747
0.047545
0.0458203
0.0438961
0.0414778
0.0382946
0.0337802
0.0274006
0.0217057
0.0192664
0.0202547
0.0230191
0.0249716
0.0223922
0.0128539
0.00367041
0.000431979
0.0866491
0.0859922
0.0854077
0.0848684
0.0843328
0.0837401
0.0830017
0.0819895
0.0805224
0.0783661
0.0761058
0.0738725
0.0716757
0.0695087
0.0673664
0.0652462
0.0631481
0.0610748
0.0590322
0.0570309
0.0550872
0.0532228
0.0514621
0.0498217
0.0482891
0.0467835
0.0450936
0.042997
0.0403126
0.0366434
0.031388
0.0252411
0.0202546
0.0180452
0.0186296
0.0201831
0.0191248
0.0121742
0.00401655
0.000556107
0.0797416
0.0792393
0.0788232
0.0784704
0.0781459
0.0777994
0.0773603
0.0767335
0.0758002
0.074439
0.072781
0.0709528
0.0690303
0.067057
0.0650603
0.0630594
0.0610702
0.0591082
0.0571905
0.0553372
0.0535714
0.0519169
0.0503898
0.048983
0.0476436
0.0462321
0.0446146
0.042751
0.0405316
0.037696
0.03376
0.0285794
0.0230191
0.0186296
0.0164677
0.0162223
0.0154151
0.010673
0.00407082
0.000672644
0.0716784
0.0713058
0.0710195
0.070799
0.0706132
0.0704181
0.0701546
0.069748
0.0691134
0.0681747
0.0669422
0.0654789
0.063854
0.0621254
0.060339
0.0585311
0.0567319
0.0549678
0.0532623
0.051635
0.0500975
0.0486437
0.0472346
0.0457789
0.0442474
0.0426644
0.0410393
0.0393675
0.0376013
0.0355892
0.0330068
0.0294686
0.0249716
0.0201831
0.0162223
0.0138553
0.0121689
0.00871303
0.00378319
0.000753429
0.0617577
0.0614928
0.0613063
0.0611779
0.0610785
0.0609682
0.0607961
0.0605014
0.0600206
0.059301
0.0583287
0.0571314
0.0557569
0.0542568
0.0526771
0.0510543
0.049414
0.0477667
0.0461005
0.0443756
0.0425919
0.0407602
0.0388841
0.0369725
0.0350519
0.0331727
0.0314055
0.0298264
0.0284807
0.0273224
0.0261651
0.0246543
0.0223923
0.0191249
0.0154151
0.012169
0.00962825
0.00674454
0.00322941
0.000773912
0.0479183
0.047738
0.0476275
0.0475647
0.0475191
0.0474514
0.0473142
0.047054
0.0466174
0.0459602
0.0450598
0.0439233
0.0425766
0.0410507
0.039374
0.0375672
0.0356414
0.033598
0.0314303
0.02913
0.0266975
0.0241568
0.0215718
0.0190553
0.0167593
0.0148384
0.0134054
0.0125038
0.0121094
0.0121363
0.0124233
0.012796
0.012854
0.0121743