/*--------------------------------*- C++ -*----------------------------------*\
| =========                 |                                                 |
| \\      /  F ield         | OpenFOAM: The Open Source CFD Toolbox           |
|  \\    /   O peration     | Version:  2.1.0                                 |
|   \\  /    A nd           | Web:      www.OpenFOAM.org                      |
|    \\/     M anipulation  |                                                 |
\*---------------------------------------------------------------------------*/
FoamFile
{
    version     2.0;
    format      ascii;
    class       surfaceScalarField;
    location    "32120";
    object      phi_w;
}
// * * * * * * * * * * * * * * * * * * * * * * * * * * * * * * * * * * * * * //

dimensions      [1 -2 -2 0 0 0 0];

internalField   nonuniform List<scalar> 
22000
(
12.2751
12.2751
-20.4585
20.5605
10.9071
-15.4501
24.8894
9.05326
-10.0946
26.6428
7.29517
-6.16612
27.0449
5.83149
-3.67616
26.8684
4.66884
-2.19317
26.5355
3.75337
-1.32886
26.2565
3.02608
-0.82397
26.1263
2.43998
-0.523454
26.1791
1.96232
-0.338843
26.4166
1.57175
-0.22128
26.8222
1.25402
-0.144431
27.3701
0.998821
-0.0933011
28.0313
0.797892
-0.058506
28.7765
0.643995
-0.0341924
29.5777
0.53085
-0.0167214
30.4086
0.453344
-0.00391743
31.2445
0.40766
0.00571996
32.0614
0.39169
0.0134974
32.8345
0.405057
0.0200793
33.5369
0.449156
0.0259019
34.138
0.527126
0.0312874
34.6018
0.643637
0.0364729
34.8866
0.804411
0.041651
34.9443
1.01533
0.0470008
34.7223
1.28089
0.0526947
34.1669
1.60203
0.0589552
33.2297
1.97338
0.0660974
31.8766
2.38098
0.0745454
30.0966
2.80174
0.084908
27.9086
3.20658
0.0980738
25.3608
3.56749
0.115285
22.5236
3.86534
0.138166
19.4813
4.09344
0.16829
16.3286
4.25589
0.204773
13.1796
4.36362
0.235622
10.1767
4.43077
0.214697
7.34358
4.47284
0.0289225
4.09604
4.50105
-0.35989
4.51066
-0.473401
10.9072
20.5605
-15.45
18.7066
18.7066
-12.1737
23.1314
15.9886
-8.31135
25.1791
13.2277
-5.26588
25.8823
10.7983
-3.23117
25.953
8.78341
-1.97133
25.8082
7.14252
-1.21514
25.6704
5.80411
-0.763073
25.6486
4.70319
-0.488842
25.7885
3.79218
-0.317769
26.0989
3.03936
-0.207786
26.567
2.42312
-0.135579
27.1692
1.92701
-0.0872923
27.8774
1.53649
-0.0542205
28.6634
1.23791
-0.0309222
29.5002
1.01896
-0.0140509
30.3629
0.86935
-0.00163666
31.2286
0.781437
0.00788747
32.0748
0.751008
0.0156718
32.8786
0.777311
0.0223436
33.6149
0.863232
0.0283109
34.2545
1.01527
0.0338738
34.7626
1.24324
0.039255
35.0975
1.55952
0.0446311
35.2099
1.9774
0.0501709
35.0434
2.50814
0.0560472
34.5382
3.15626
0.0624629
33.6373
3.91343
0.0697108
32.2974
4.75216
0.0782108
30.5015
5.62314
0.0885679
28.2695
6.46121
0.10167
25.6586
7.20249
0.118776
22.7517
7.80529
0.141546
19.6437
8.25783
0.171628
16.4363
8.57265
0.208262
13.2468
8.77586
0.239607
10.2187
8.89818
0.219049
7.37179
8.96962
0.0309079
4.10566
9.01194
-0.363869
9.0277
-0.475052
9.05329
24.8894
-10.0946
15.9887
23.1313
-8.31137
20.3705
20.3704
-5.99224
22.7497
17.3608
-3.99727
23.8673
14.5394
-2.56426
24.3121
12.0695
-1.62309
24.4698
9.96516
-1.03031
24.5695
8.18359
-0.661489
24.7376
6.67366
-0.430002
25.0357
5.39544
-0.281658
25.4827
4.3226
-0.184711
26.0709
3.43745
-0.120374
26.7787
2.72372
-0.0768218
27.5789
2.16324
-0.0465899
28.4444
1.73661
-0.0249983
29.3506
1.42528
-0.00920125
30.275
1.21337
0.00255503
31.1981
1.08932
0.0118765
32.1011
1.04664
0.0196565
32.9645
1.0842
0.0264642
33.767
1.20646
0.0326714
34.4825
1.42362
0.0385339
35.0789
1.75146
0.0442407
35.5154
2.21066
0.0499481
35.7406
2.82491
0.055797
35.6916
3.61686
0.0619282
35.2954
4.60086
0.0685241
34.4761
5.77179
0.0758568
33.1684
7.09137
0.0843225
31.3395
8.47811
0.0945158
29.0108
9.81361
0.107332
26.2614
10.9773
0.124062
23.2043
11.8971
0.146435
19.9585
12.562
0.176211
16.6395
13.0038
0.212807
13.3691
13.2735
0.244604
10.2902
13.4244
0.224461
7.41411
13.5038
0.033914
4.12143
13.5452
-0.367183
13.5596
-0.477225
7.29522
26.6428
-6.16614
13.2278
25.1791
-5.26591
17.3608
22.7497
-3.99726
19.9283
19.9282
-2.81264
21.3974
17.1145
-1.89559
22.2078
14.508
-1.25241
22.6882
12.1729
-0.82351
23.0595
10.108
-0.542893
23.4594
8.29293
-0.359015
23.9629
6.7118
-0.237349
24.5975
5.36011
-0.156141
25.3572
4.23748
-0.101264
26.2182
3.33441
-0.0634061
27.1522
2.63047
-0.0366072
28.1331
2.09948
-0.0171379
29.1386
1.71523
-0.00272639
30.151
1.45538
0.00836898
31.1554
1.30398
0.0174661
32.1386
1.25202
0.0252948
33.0868
1.29785
0.0323317
33.9841
1.4475
0.0388861
34.8103
1.71506
0.0451766
35.5381
2.12302
0.0513554
36.1296
2.70229
0.0575322
36.5325
3.49098
0.0638083
36.6756
4.53042
0.0702788
36.4663
5.85597
0.0770807
35.7956
7.4794
0.0844468
34.5551
9.36166
0.0927392
32.675
11.3829
0.102536
30.1744
13.3367
0.114748
27.1813
14.995
0.130727
23.8692
16.2434
0.152303
20.4003
17.0892
0.181385
16.9092
17.6076
0.217618
13.52
17.8921
0.249661
10.3696
18.028
0.229924
7.45548
18.0832
0.0373464
4.13578
18.1033
-0.369606
18.1057
-0.479327
5.83153
27.0449
-3.67622
10.7983
25.8822
-3.2312
14.5394
23.8673
-2.56426
17.1146
21.3974
-1.89559
18.7909
18.7908
-1.34032
19.8727
16.2396
-0.924404
20.6233
13.8329
-0.629718
21.2444
11.6016
-0.426046
21.8783
9.55595
-0.286439
22.6112
7.7127
-0.19104
23.4749
6.10565
-0.125713
24.4541
4.77026
-0.0804303
25.5142
3.70875
-0.0483861
26.6212
2.89506
-0.0251525
27.7488
2.29139
-0.00796641
28.8788
1.86041
0.00505073
29.9996
1.57196
0.0155806
31.1035
1.4049
0.024554
32.1845
1.34748
0.032567
33.2365
1.39737
0.0400008
34.2517
1.56188
0.0470998
35.2183
1.85866
0.0540336
36.1173
2.31696
0.0609053
36.9183
2.97915
0.0677688
37.572
3.90176
0.0746652
38.0011
5.15404
0.0816248
38.0898
6.80988
0.0887113
37.6779
8.92524
0.096085
36.5763
11.4902
0.104051
34.6288
14.3525
0.113163
31.8328
17.1525
0.124352
28.4297
19.4201
0.139064
24.715
20.99
0.159291
20.9187
21.9419
0.187156
17.1937
22.444
0.222589
13.6559
22.6597
0.254573
10.4248
22.7163
0.23508
7.47559
22.7037
0.0405189
4.13817
22.6764
-0.371867
22.6535
-0.480911
4.66886
26.8683
-2.1932
8.78343
25.9529
-1.97134
12.0695
24.312
-1.62309
14.5081
22.2077
-1.25242
16.2396
19.8727
-0.924405
17.4661
17.4661
-0.662688
18.392
15.0761
-0.465669
19.1987
12.7448
-0.322089
20.035
10.5004
-0.219577
21.0041
8.39268
-0.147218
22.1395
6.51559
-0.0960717
23.3926
4.97943
-0.0594754
24.7005
3.7957
-0.0327936
26.0176
2.91746
-0.0129898
27.3178
2.28362
0.00196414
28.5904
1.84065
0.0139711
29.8325
1.54847
0.0241444
31.0461
1.38057
0.0332081
32.2343
1.32262
0.0416381
33.401
1.3715
0.049738
34.5484
1.53513
0.0576898
35.6766
1.83355
0.0656053
36.7795
2.30125
0.0735215
37.8409
2.99105
0.0814248
38.8243
3.97931
0.0892773
39.6569
5.3713
0.097008
40.2051
7.30198
0.104566
40.2429
9.91929
0.111999
39.4386
13.3192
0.119516
37.4287
17.3816
0.127606
34.1004
21.4972
0.13721
29.9996
24.5391
0.149912
25.6669
26.3506
0.168002
21.4208
27.2409
0.193932
17.4093
27.5641
0.227969
13.7125
27.5856
0.259415
10.4122
27.4772
0.239707
7.44832
27.3433
0.0425249
4.11524
27.2388
-0.375193
27.1756
-0.481563
3.75338
26.5354
-1.32887
7.14256
25.8081
-1.21513
9.96522
24.4697
-1.0303
12.173
22.6881
-0.823508
13.833
20.6232
-0.629717
15.0762
18.3919
-0.465667
16.0606
16.0605
-0.335217
16.9543
13.6574
-0.235802
17.9273
11.2026
-0.162171
19.127
8.76221
-0.108284
20.6034
6.52232
-0.0687814
22.2089
4.78646
-0.0394878
23.8223
3.53677
-0.0174906
25.3837
2.66171
-0.000796533
26.8749
2.05701
0.0125817
28.2982
1.64704
0.0239445
29.6646
1.38188
0.0341078
30.9881
1.23112
0.0436176
32.2832
1.17902
0.0528517
33.5646
1.22184
0.0620416
34.8469
1.36713
0.071309
36.1443
1.63496
0.0807141
37.4693
2.06122
0.090231
38.8292
2.70396
0.0997575
40.2163
3.65403
0.10914
41.5876
5.05177
0.118161
42.8224
7.10992
0.126605
43.6428
10.1332
0.134347
43.501
14.4873
0.141431
41.5443
20.3573
0.148194
37.1423
26.9134
0.155445
31.8111
30.8844
0.164899
26.5572
32.6275
0.179535
21.7441
33.1019
0.202426
17.4308
32.9819
0.234238
13.6041
32.64
0.264452
10.2784
32.2664
0.243598
7.34377
31.956
0.0421905
4.05206
31.7457
-0.381173
31.6284
-0.480913
3.0261
26.2564
-0.823966
5.80415
25.6703
-0.76307
8.18365
24.5694
-0.661488
10.1081
23.0594
-0.542893
11.6017
21.2443
-0.426046
12.7448
19.1986
-0.32209
13.6575
16.9542
-0.235803
14.4996
14.4995
-0.16755
15.4869
11.7972
-0.115039
16.8872
8.85787
-0.0751091
18.8675
5.96623
-0.0447498
20.9592
4.05922
-0.021394
22.9472
2.8631
-0.0033367
24.779
2.10238
0.0111982
26.4649
1.60883
0.0236582
28.033
1.28742
0.0349046
29.5139
1.08485
0.0455408
30.936
0.97175
0.0559898
32.326
0.933674
0.0665537
33.7099
0.967019
0.077418
35.1147
1.07781
0.0886675
36.5705
1.28278
0.100314
38.1121
1.61289
0.112254
39.7792
2.12073
0.124282
41.614
2.89485
0.136104
43.6458
4.08765
0.147316
45.8457
5.96986
0.157476
47.997
9.03341
0.166222
49.371
14.1553
0.173371
48.1004
22.6586
0.178963
41.1133
34.9196
0.183101
33.5543
39.4569
0.187009
27.0316
40.1693
0.19577
21.6241
39.5521
0.213778
17.0889
38.617
0.242102
13.2304
37.7246
0.270112
9.96801
36.9957
0.246643
7.13346
36.4676
0.0381884
3.93475
36.1333
-0.391576
35.9531
-0.478588
2.43999
26.1262
-0.52345
4.70322
25.6485
-0.488844
6.6737
24.7375
-0.430006
8.29299
23.4593
-0.359018
9.55602
21.8782
-0.286442
10.5005
20.0349
-0.21958
11.2027
17.9272
-0.162173
11.7973
15.4867
-0.115039
12.5475
12.5474
-0.0773654
13.9955
8.84022
-0.04783
16.9605
4.37218
-0.0250017
19.7631
2.57635
-0.00651222
22.1865
1.71723
0.00877827
24.2855
1.24735
0.0221897
26.1435
0.967915
0.0344399
27.8305
0.796016
0.0461377
29.4008
0.692881
0.0577539
30.8979
0.639264
0.0696485
32.3594
0.626198
0.0821037
33.8207
0.651433
0.0952853
35.3197
0.718431
0.109268
36.9006
0.837019
0.124033
38.6199
1.02581
0.139394
40.5534
1.31748
0.155025
42.8068
1.77005
0.170502
45.528
2.49315
0.185217
48.9092
3.71218
0.198469
53.1188
5.94202
0.209688
57.8744
10.5083
0.218715
60.3613
21.2633
0.225605
45.6506
50.6943
0.22789
34.2667
51.8742
0.221368
26.4144
49.0448
0.219276
20.6889
46.3178
0.229316
16.1965
44.2057
0.252458
12.5016
42.6453
0.277021
9.43987
41.5293
0.248856
6.7992
40.7798
0.0291396
3.75452
40.3243
-0.408101
40.0819
-0.474173
1.96232
26.179
-0.338844
3.7922
25.7885
-0.317772
5.39547
25.0356
-0.281663
6.71185
23.9628
-0.237361
7.71275
22.6111
-0.191045
8.39275
21.004
-0.147221
8.76229
19.1269
-0.108286
8.85797
16.887
-0.0751106
8.84035
13.9953
-0.0478311
9.52748
9.52724
-0.0267587
15.1647
3.32164
-0.0124001
18.9039
6.23557
0.00215298
21.7166
8.15115
0.0158937
24.006
9.83201
0.0287202
25.9716
11.4291
0.0409849
27.7273
12.997
0.0531574
29.3472
14.5658
0.065661
30.8849
16.1569
0.0788547
32.3846
17.7889
0.0930546
33.8877
19.481
0.108457
35.4382
21.2539
0.125148
37.0894
23.1326
0.143067
38.9116
25.15
0.161898
41.0059
27.3515
0.181177
43.5299
29.8085
0.200508
46.747
32.6516
0.219242
51.1391
36.1703
0.236519
57.6851
41.2002
0.251815
68.6294
50.8579
0.266308
89.7923
79.2827
0.284461
46.8305
95.1533
0.299356
31.4373
68.4855
0.272413
23.6874
57.8724
0.251199
18.5768
52.4806
0.249535
14.6361
49.2442
0.265908
11.3855
47.1247
0.285806
8.69039
45.7041
0.250371
6.34373
44.7869
0.0138027
3.51212
44.2407
-0.431985
43.9489
-0.467219
1.57174
26.4165
-0.221298
3.03938
26.0988
-0.207793
4.32263
25.4826
-0.184716
5.36016
24.5974
-0.156149
6.10569
23.4748
-0.125725
6.51564
22.1394
-0.096076
6.52238
20.6032
-0.0687825
5.9663
18.8674
-0.0447521
4.37225
16.9603
-0.0250046
3.32187
15.1645
-0.0124029
18.0786
18.0782
-0.368401
20.8195
29.1814
-0.548662
23.3975
37.0376
-0.684884
25.6032
43.2679
-0.8165
27.5394
48.5448
-0.948334
29.2961
53.2084
-1.08391
30.9383
57.4538
-1.22631
32.5169
61.4073
-1.37811
34.0767
65.162
-1.54138
35.6606
68.7956
-1.71921
37.317
72.3826
-1.91476
39.1068
76.0039
-2.13107
41.113
79.7571
-2.37279
43.463
83.7717
-2.64502
46.373
88.2338
-2.95425
50.2658
93.4281
-3.312
56.169
99.7972
-3.73797
67.3427
107.905
-4.2618
97.0542
117.392
-4.82759
105.663
118.75
-4.28564
20.1627
78.7725
0.257609
20.8241
68.9812
0.27368
18.2956
61.4938
0.268805
15.3404
56.5042
0.268295
12.5166
53.1747
0.281491
9.96486
50.9149
0.296879
7.77321
49.3884
0.251513
5.79752
48.4067
-0.00818641
3.22038
47.822
-0.463523
47.5035
-0.457343
1.25402
26.8221
-0.144445
2.42313
26.5669
-0.135585
3.43747
26.0708
-0.120381
4.23752
25.3571
-0.101268
4.7703
24.454
-0.0804354
4.97948
23.3925
-0.0594761
4.7865
22.2087
-0.0394894
4.05927
20.959
-0.021401
2.57639
19.7629
-0.0065133
6.23565
18.9038
0.0021527
29.1818
20.8193
-0.548668
28.6757
28.6755
-0.333684
29.6278
35.4387
-0.310143
30.8801
41.2745
-0.348832
32.203
46.3962
-0.400565
33.5415
50.9832
-0.455591
34.8918
55.1715
-0.511237
36.2716
59.0641
-0.56649
37.7102
62.7413
-0.621699
39.2475
66.2704
-0.678161
40.9383
69.7124
-0.737519
42.86
73.1258
-0.801894
45.1276
76.5694
-0.874937
47.925
80.1023
-0.960928
51.5673
83.7766
-1.06645
56.6348
87.6043
-1.20329
64.2772
91.4469
-1.3907
76.8295
94.6568
-1.65485
98.412
95.0141
-1.97715
65.6855
86.2172
-1.87019
10.3714
71.3935
0.224514
13.3368
67.1771
0.275512
13.3059
62.6289
0.283488
12.0109
58.8821
0.286557
10.2568
56.0494
0.299064
8.43839
53.9886
0.310515
6.79152
52.5478
0.252499
5.2128
51.6099
-0.0365533
2.90193
51.0404
-0.501956
50.7209
-0.444527
0.998836
27.37
-0.0932999
1.92704
27.1691
-0.0872942
2.72374
26.7786
-0.0768324
3.33444
26.2181
-0.0634152
3.70879
25.5141
-0.0483858
3.79574
24.7004
-0.0327934
3.53681
23.8222
-0.0174923
2.86313
22.9471
-0.00333865
1.71726
22.1864
0.00878433
8.1512
21.7165
0.0158963
37.0379
23.3973
-0.684886
35.4389
29.6276
-0.310145
35.4636
35.4634
-0.183483
36.0018
40.8051
-0.160589
36.7899
45.6622
-0.162094
37.7299
50.0948
-0.17311
38.7844
54.1753
-0.188476
39.9488
57.9707
-0.20632
41.2394
61.5394
-0.225689
42.6896
64.9309
-0.246617
44.3517
68.1867
-0.269753
46.3036
71.3399
-0.295562
48.6606
74.4113
-0.325152
51.5993
77.3999
-0.360074
55.395
80.2595
-0.401555
60.4774
82.8466
-0.45113
67.4871
84.8068
-0.507356
77.1868
85.349
-0.554711
89.6151
82.8941
-0.528803
50.8617
75.0047
-0.224738
6.15507
67.7894
0.242856
8.78858
65.7043
0.290221
9.55907
62.9709
0.300873
9.17821
60.359
0.306086
8.19605
58.1695
0.318998
6.99766
56.4669
0.326795
5.85356
55.232
0.252699
4.64334
54.4165
-0.0734007
2.58244
53.9028
-0.545804
53.6048
-0.429402
0.797909
28.0313
-0.0584975
1.53651
27.8774
-0.0542191
2.16326
27.5788
-0.0465933
2.63049
27.1521
-0.0366093
2.89509
26.6211
-0.025151
2.91749
26.0175
-0.012991
2.66174
25.3836
-0.000798999
2.1024
24.7789
0.0111983
1.24737
24.2854
0.0221927
9.83205
24.0059
0.0287213
43.2682
25.603
-0.816505
41.2747
30.8799
-0.348834
40.8053
36.0017
-0.16059
40.8589
40.8587
-0.112183
41.2225
45.392
-0.095999
41.8104
49.5966
-0.0930272
42.5798
53.4981
-0.0964477
43.5175
57.1318
-0.103008
44.6309
60.533
-0.11144
45.9453
63.7331
-0.121388
47.5049
66.7552
-0.132622
49.375
69.6106
-0.14531
51.6491
72.2923
-0.159831
54.4589
74.7619
-0.176391
57.9821
76.9266
-0.194648
62.4377
78.5998
-0.213348
68.0293
79.4373
-0.227187
74.7318
78.8611
-0.220378
81.7257
76.0472
-0.154532
43.6464
70.2433
0.0481576
4.06999
66.0273
0.269195
6.0552
64.8776
0.310188
6.94716
63.1983
0.320643
6.98863
61.427
0.327544
6.49347
59.8237
0.341681
5.76281
58.5099
0.345583
5.03802
57.5311
0.250691
4.12966
56.8797
-0.121008
2.28445
56.4433
-0.592412
56.183
-0.413205
0.644005
28.7764
-0.0341857
1.23792
28.6633
-0.0309214
1.73663
28.4443
-0.0249977
2.0995
28.133
-0.017135
2.29142
27.7488
-0.00796615
2.28364
27.3178
0.0019612
2.05704
26.8748
0.012578
1.60885
26.4648
0.0236552
0.967927
26.1434
0.0344321
11.4292
25.9715
0.0409819
48.5451
27.5393
-0.948342
46.3965
32.2029
-0.400569
45.6624
36.7898
-0.162096
45.3921
41.2223
-0.0959996
45.4271
45.427
-0.0693434
45.7119
49.3714
-0.058432
46.2135
53.0527
-0.0554794
46.9188
56.4835
-0.0565344
47.8309
59.681
-0.0595641
48.9674
62.6607
-0.0640364
50.3603
65.4315
-0.0696312
52.0567
67.9899
-0.0758367
54.1187
70.3128
-0.0828728
56.6236
72.3468
-0.0905246
59.6553
73.9924
-0.0976643
63.2753
75.0822
-0.102453
67.4531
75.3593
-0.100017
71.9179
74.4752
-0.079083
75.9218
72.0598
-0.0167535
39.4304
67.9539
0.130702
2.92025
65.2619
0.294303
4.37594
64.5793
0.331469
5.17584
63.525
0.342083
5.38537
62.3419
0.351327
5.17971
61.2144
0.36748
4.784
60.2589
0.366378
4.38655
59.5415
0.243919
3.69327
59.0657
-0.182173
2.02415
58.7127
-0.638009
58.4996
-0.397547
0.530852
29.5776
-0.0167203
1.01897
29.5001
-0.0140582
1.4253
29.3505
-0.00920769
1.71525
29.1386
-0.00272589
1.86043
28.8787
0.00504897
1.84067
28.5903
0.0139676
1.64706
28.2981
0.0239403
1.28744
28.033
0.0348995
0.796024
27.8304
0.046126
12.997
27.7273
0.0531516
53.2086
29.296
-1.08392
50.9834
33.5415
-0.455595
50.095
37.7298
-0.173112
49.5968
41.8104
-0.0930281
49.3715
45.7119
-0.0584323
49.3932
49.3932
-0.0424658
49.6443
52.8383
-0.0355212
50.1163
56.0457
-0.0332404
50.8107
59.0207
-0.0333161
51.7382
61.7683
-0.0348736
52.9187
64.2882
-0.0373336
54.3797
66.569
-0.0401388
56.1528
68.5826
-0.0433115
58.2692
70.2763
-0.0463507
60.7451
71.5646
-0.0479786
63.5524
72.3216
-0.0466608
66.5689
72.3808
-0.038316
69.5025
71.5558
-0.0144155
71.8159
69.7046
0.0417487
36.7384
66.8528
0.167305
2.23767
65.0744
0.317457
3.32171
64.654
0.353206
3.99268
63.9899
0.365261
4.25785
63.2194
0.378005
4.22429
62.4649
0.39669
4.06658
61.82
0.388023
3.91076
61.3482
0.228302
3.34023
61.0401
-0.259748
1.81103
60.7689
-0.678082
60.607
-0.384029
0.453342
30.4086
-0.0039203
0.869354
30.3629
-0.0016437
1.21339
30.275
0.00254628
1.4554
30.151
0.00836729
1.57198
29.9996
0.015578
1.54849
29.8325
0.0241411
1.38189
29.6646
0.034104
1.08487
29.5138
0.0455359
0.692888
29.4007
0.0577427
14.5658
29.3471
0.0656549
57.454
30.9383
-1.22632
55.1718
34.8918
-0.511241
54.1755
38.7844
-0.188478
53.4983
42.5798
-0.0964487
53.0528
46.2135
-0.0554799
52.8384
49.6443
-0.0355214
52.8517
52.8517
-0.0259274
53.0912
55.8285
-0.0215916
53.5583
58.574
-0.0198593
54.2581
61.0882
-0.0197443
55.1996
63.3667
-0.0205239
56.3933
65.3965
-0.0214542
57.8464
67.1513
-0.0225179
59.5575
68.5877
-0.0232427
61.5021
69.6418
-0.0223171
63.6116
70.23
-0.0182972
65.7439
70.2557
-0.00775555
67.6513
69.6316
0.0164381
68.9642
68.322
0.0693922
34.96
66.4003
0.18879
1.81719
65.2333
0.339452
2.65767
64.9764
0.375795
3.22211
64.5735
0.390811
3.5034
64.1036
0.408279
3.5794
63.6454
0.429317
3.59478
63.2676
0.408323
3.60264
63.0199
0.197884
3.06903
62.8606
-0.35545
1.64913
62.6702
-0.708124
62.5603
-0.373842
0.407657
31.2445
0.00571442
0.781442
31.2286
0.00788332
1.08934
31.1981
0.0118732
1.304
31.1554
0.0174594
1.40492
31.1035
0.0245496
1.38059
31.0461
0.0332049
1.23113
30.9881
0.0436145
0.971764
30.936
0.0559863
0.639271
30.8979
0.0696419
16.1569
30.8849
0.0788506
61.4076
32.5169
-1.37812
59.0643
36.2717
-0.566494
57.9709
39.9488
-0.206322
57.1319
43.5175
-0.103009
56.4836
46.9188
-0.0565348
56.0458
50.1163
-0.0332405
55.8285
53.0912
-0.0215916
55.8367
55.8367
-0.0157549
56.0725
58.3517
-0.0128852
56.5366
60.6359
-0.0117825
57.2294
62.6854
-0.011568
58.1481
64.4895
-0.0114236
59.2828
66.028
-0.0114091
60.6116
67.2694
-0.0109329
62.0903
68.1719
-0.00879372
63.6373
68.6864
-0.00365407
65.1199
68.7649
0.00765325
66.3417
68.3778
0.0318648
67.0425
67.5371
0.084063
33.793
66.3217
0.204302
1.56032
65.5957
0.361056
2.25481
65.4525
0.399902
2.7522
65.2408
0.419533
3.04519
65.0055
0.442698
3.20155
64.7943
0.46464
3.34709
64.6528
0.423492
3.44337
64.6089
0.144781
2.87858
64.5769
-0.468397
1.53932
64.4715
-0.72468
64.414
-0.367564
0.391688
32.0614
0.0134898
0.751015
32.0748
0.0156641
1.04665
32.1011
0.0196558
1.25203
32.1387
0.0252864
1.3475
32.1845
0.0325577
1.32264
32.2344
0.041634
1.17903
32.2832
0.0528491
0.933687
32.3261
0.0665518
0.626205
32.3594
0.0821026
17.789
32.3847
0.0930527
65.1623
34.0767
-1.54139
62.7415
37.7103
-0.621701
61.5397
41.2395
-0.225691
60.5332
44.631
-0.111441
59.6811
47.831
-0.0595644
59.0207
50.8108
-0.033316
58.574
53.5584
-0.0198591
58.3517
56.0726
-0.012885
58.3567
58.3568
-0.00918278
58.5861
60.4144
-0.00740785
59.0335
62.2452
-0.00658927
59.6865
63.8431
-0.0058424
60.5242
65.1956
-0.00529966
61.5142
66.2834
-0.00429133
62.6047
67.0831
-0.00170974
63.7158
67.5712
0.00387006
64.7328
67.7323
0.0154367
65.501
67.5699
0.0397082
65.8271
67.1186
0.0925143
33.0669
66.453
0.216729
1.41714
66.0637
0.382404
2.04311
66.0095
0.425892
2.51687
65.9543
0.451896
2.83402
65.9206
0.48113
3.06007
65.9322
0.500605
3.30322
66.0115
0.427652
3.41136
66.1528
0.0603233
2.77313
66.2348
-0.594234
1.48185
66.2249
-0.726592
66.2216
-0.365191
0.405055
32.8346
0.0200705
0.77732
32.8787
0.0223353
1.08421
32.9646
0.0264622
1.29786
33.0869
0.0323218
1.39738
33.2365
0.0399874
1.37151
33.401
0.0497329
1.22185
33.5647
0.0620392
0.967033
33.71
0.0774172
0.65144
33.8208
0.0952873
19.481
33.8878
0.108457
68.7959
35.6607
-1.71921
66.2707
39.2476
-0.678163
64.9312
42.6897
-0.246618
63.7333
45.9455
-0.121388
62.6609
48.9676
-0.0640363
61.7683
51.7383
-0.0348733
61.0882
54.2583
-0.0197438
60.6359
56.5368
-0.011782
60.4143
58.5863
-0.00740751
60.4168
60.4171
-0.00519436
60.6314
62.0346
-0.00404032
61.039
63.4389
-0.00303518
61.612
64.6244
-0.00222551
62.3139
65.5821
-0.000951696
63.0928
66.3022
0.0018031
63.8769
66.7795
0.00746163
64.5703
67.0199
0.0190583
65.0497
67.0474
0.0433407
65.1615
66.91
0.0970036
32.6776
66.6801
0.226195
1.36296
66.5606
0.40229
1.98787
66.5861
0.453163
2.48317
66.6767
0.487324
2.84558
66.8374
0.521938
3.13943
67.0699
0.532984
3.44447
67.3706
0.413159
3.49344
67.6847
-0.0560867
2.76319
67.8825
-0.725208
1.47856
67.9823
-0.716133
68.0378
-0.366374
0.449155
33.537
0.0258938
0.863241
33.615
0.0283058
1.20647
33.767
0.0326682
1.44751
33.9842
0.0388777
1.56189
34.2518
0.0470896
1.53515
34.5485
0.0576828
1.36715
34.847
0.0713066
1.07783
35.1148
0.0886672
0.718439
35.3198
0.109271
21.2539
35.4383
0.12515
72.3829
37.3171
-1.91477
69.7127
40.9384
-0.737521
68.187
44.3519
-0.269754
66.7554
47.5051
-0.132622
65.4316
50.3605
-0.0696307
64.2882
52.9189
-0.0373329
63.3667
55.1998
-0.0205229
62.6854
57.2296
-0.0115671
62.245
59.0337
-0.00658843
62.0344
60.6317
-0.0040398
62.0357
62.036
-0.0026439
62.2245
63.252
-0.00155647
62.5697
64.2797
-0.000641827
63.034
65.1168
0.000703116
63.5701
65.7626
0.00342263
64.1173
66.2236
0.00889292
64.5978
66.5195
0.0200958
64.9123
66.6893
0.0438895
64.9316
66.7932
0.0976827
32.5581
66.9094
0.230762
1.38844
67.0154
0.416977
2.0785
67.1229
0.478963
2.64387
67.3684
0.523014
3.07811
67.739
0.560693
3.44014
68.2118
0.553972
3.75857
68.7502
0.369777
3.69123
69.2425
-0.195874
2.86298
69.5728
-0.853241
1.53408
69.7994
-0.699293
69.9219
-0.370759
0.527126
34.1381
0.031281
1.01528
34.2546
0.0338718
1.42363
34.4826
0.0385311
1.71507
34.8104
0.0451729
1.85868
35.2184
0.0540305
1.83357
35.6767
0.0655992
1.63498
36.1444
0.0807121
1.28279
36.5706
0.100314
0.837029
36.9007
0.124036
23.1327
37.0895
0.14307
76.0043
39.107
-2.13107
73.1262
42.8602
-0.801896
71.3402
46.3038
-0.295562
69.6108
49.3753
-0.145309
67.99
52.057
-0.0758356
66.5691
54.38
-0.0401374
65.3965
56.3936
-0.0214526
64.4895
58.1484
-0.0114219
63.843
59.6869
-0.00584089
63.4387
61.0393
-0.00303398
63.2518
62.2249
-0.00155578
63.2522
63.2525
-0.000550401
63.4067
64.1249
0.000308604
63.6798
64.8423
0.00157591
64.0311
65.4075
0.00399422
64.4133
65.8328
0.0089245
64.7675
66.1464
0.0191841
65.0162
66.3995
0.0414858
65.0479
66.6683
0.0934395
32.6641
67.0498
0.226279
1.49593
67.3499
0.418539
2.32401
67.5538
0.496679
3.01443
67.9832
0.552224
3.55091
68.6021
0.588537
3.9785
69.3551
0.550761
4.25085
70.1606
0.282987
4.02161
70.8551
-0.35947
3.08955
71.3619
-0.973874
1.65658
71.7395
-0.684033
71.9416
-0.378259
0.643638
34.6019
0.0364675
1.24325
34.7627
0.0392542
1.75147
35.079
0.0442388
2.12304
35.5382
0.0513559
2.31699
36.1175
0.060907
2.30127
36.7797
0.073519
2.06124
37.4695
0.0902298
1.6129
38.1122
0.112254
1.02582
38.6201
0.139396
25.1501
38.9118
0.161902
79.7575
41.1132
-2.3728
76.5697
45.1279
-0.874942
74.4116
48.6609
-0.32515
72.2925
51.6494
-0.159829
70.313
54.1191
-0.0828709
68.5827
56.1531
-0.0433093
67.1514
57.8468
-0.0225155
66.0279
59.2832
-0.0114067
65.1955
60.5247
-0.00529731
64.6242
61.6125
-0.00222346
64.2794
62.5701
-0.000640267
64.1246
63.4072
0.000309477
64.1241
64.1246
0.00104703
64.2451
64.7197
0.00208609
64.4563
65.1927
0.00396952
64.7269
65.5547
0.00792021
65.0206
65.8367
0.0164731
65.285
66.0998
0.0357543
65.4294
66.442
0.0823395
32.9642
66.9974
0.206242
1.69982
67.4627
0.393348
2.75343
67.7939
0.493956
3.63332
68.4612
0.562417
4.30393
69.3938
0.590863
4.78401
70.4897
0.506269
4.94529
71.6062
0.140446
4.52841
72.5624
-0.541217
3.46716
73.3139
-1.08329
1.85866
73.8779
-0.676531
74.1778
-0.38886
0.804415
34.8867
0.0416419
1.55953
35.0977
0.0446291
2.21068
35.5155
0.0499465
2.70232
36.1298
0.0575343
2.97918
36.9185
0.0677718
2.99107
37.8411
0.0814251
2.70398
38.8294
0.099757
2.12075
39.7795
0.124281
1.3175
40.5536
0.155026
27.3516
41.0061
0.18118
83.7722
43.4632
-2.64503
80.1027
47.9253
-0.960931
77.4002
51.5996
-0.360073
74.7622
54.4593
-0.176389
72.3471
56.624
-0.090522
70.2764
58.2696
-0.0463476
68.5877
59.5579
-0.0232394
67.2694
60.6121
-0.0109295
66.2833
61.5147
-0.00428798
65.5819
62.3144
-0.000948628
65.1165
63.0345
0.000705709
64.8419
63.6803
0.00157784
64.7192
64.2456
0.00208714
64.7181
64.7187
0.00259848
64.8183
65.0894
0.00357843
65.0089
65.3585
0.00603747
65.2836
65.5504
0.0119666
65.6273
65.7304
0.0262021
65.9847
66.0229
0.0622188
33.4296
66.6223
0.162612
2.03101
67.2096
0.322427
3.42073
67.7251
0.45175
4.56595
68.72
0.534073
5.39976
70.0674
0.547314
5.90058
71.599
0.403356
5.90148
73.101
-0.0536333
5.2799
74.4247
-0.729038
4.03117
75.5073
-1.17717
2.15859
76.3071
-0.679144
76.73
-0.402242
1.01533
34.9445
0.0469863
1.97742
35.21
0.0501667
2.82493
35.7408
0.0557947
3.49101
36.5327
0.06381
3.90179
37.5722
0.0746678
3.97935
38.8245
0.0892789
3.65406
40.2165
0.109138
2.89488
41.6142
0.136103
1.77006
42.807
0.170501
29.8086
43.5302
0.200509
88.2343
46.3733
-2.95426
83.777
51.5677
-1.06645
80.2598
55.3954
-0.401554
76.9269
57.9826
-0.194645
73.9926
59.6558
-0.0976608
71.5648
60.7456
-0.0479745
69.6419
61.5026
-0.0223127
68.1719
62.0908
-0.00878919
67.083
62.6052
-0.00170527
66.302
63.0934
0.00180732
65.7623
63.5707
0.0034264
65.4072
64.0317
0.00399735
65.1923
64.4569
0.0039718
65.0889
64.8189
0.00357967
65.0874
65.088
0.00319739
65.2008
65.242
0.00353631
65.4636
65.2823
0.00577507
65.9197
65.2623
0.0126314
66.5842
65.327
0.0317559
34.0169
65.7575
0.0888646
2.54651
66.3789
0.186789
4.41556
67.1779
0.346816
5.91337
68.6452
0.442388
6.93141
70.56
0.435117
7.40259
72.668
0.23171
7.22508
74.7041
-0.265114
6.36255
76.5271
-0.908674
4.83093
78.0415
-1.25284
2.58155
79.1422
-0.691265
79.7217
-0.417387
1.2809
34.7225
0.0526821
2.50816
35.0436
0.056042
3.61689
35.6918
0.0619228
4.53046
36.6758
0.0702784
5.15408
38.0013
0.0816251
5.37134
39.6572
0.0970094
5.05182
41.5879
0.118158
4.08769
43.6461
0.147316
2.49317
45.5283
0.185217
32.6517
46.7473
0.219242
93.4287
50.2661
-3.31201
87.6048
56.6352
-1.2033
82.847
60.4779
-0.451129
78.6001
62.4382
-0.213345
75.0825
63.2758
-0.102449
72.3218
63.5529
-0.0466556
70.2301
63.6122
-0.0182917
68.6864
63.6379
-0.00364833
67.5711
63.7164
0.00387576
66.7794
63.8775
0.00746711
66.2233
64.118
0.00889798
65.8324
64.4139
0.00892896
65.5543
64.7276
0.00792386
65.358
65.0096
0.0060401
65.2413
65.2015
0.00353773
65.2411
65.2419
0.000789515
65.4436
65.0824
-0.00196005
65.9845
64.7267
-0.00474836
67.0146
64.3057
-0.00828072
34.6383
64.1963
-0.0141366
3.34557
64.6653
-0.0181851
5.88278
65.9159
0.161929
7.8282
68.0908
0.265955
9.03942
70.8022
0.238608
9.43869
73.6887
-0.00606087
9.04812
76.4811
-0.481093
7.87692
78.9764
-1.0729
5.93166
81.0432
-1.31262
3.16103
82.5284
-0.710597
83.3077
-0.431585
1.60204
34.1671
0.0589503
3.15629
34.5385
0.0624567
4.6009
35.2956
0.0685165
5.85602
36.4666
0.0770773
6.80995
38.09
0.0887094
7.30204
40.2054
0.104567
7.10998
42.8227
0.126603
5.96991
45.846
0.157477
3.71221
48.9096
0.198471
36.1705
51.1394
0.23652
99.7978
56.1694
-3.73799
91.4475
64.2778
-1.3907
84.8073
67.4877
-0.507354
79.4377
68.0299
-0.227183
75.3596
67.4537
-0.100012
72.381
66.5696
-0.0383096
70.2558
65.7445
-0.00774871
68.7649
65.1205
0.00766025
67.7323
64.7334
0.0154437
67.0198
64.571
0.0190651
66.5193
64.5985
0.0201022
66.1461
64.7683
0.01919
65.8363
65.0213
0.0164782
65.5499
65.2844
0.0119708
65.2817
65.4644
0.00577807
65.0817
65.4444
-0.00195842
65.0879
65.0887
-0.0116899
65.5635
64.2781
-0.0261982
66.9052
63.0201
-0.0554887
35.1073
61.7162
-0.133576
4.59619
61.6594
-0.257305
8.05768
63.6546
-0.091631
10.5397
66.9089
0.00590709
11.9259
70.7631
-0.0279944
12.2311
74.7484
-0.254386
11.5434
78.5431
-0.68228
9.94365
81.9093
-1.21531
7.41689
84.6726
-1.36097
3.94039
86.6459
-0.731947
87.68
-0.438118
1.97339
33.23
0.0660992
3.91346
33.6376
0.0697052
5.77184
34.4763
0.0758512
7.47947
35.7959
0.0844432
8.92532
37.6782
0.0960838
9.91937
40.2432
0.112001
10.1333
43.6431
0.134349
9.03348
47.9973
0.166225
5.94206
53.1192
0.209692
41.2005
57.6855
0.251819
107.906
67.3433
-4.26181
94.6574
76.8301
-1.65485
85.3495
77.1874
-0.554709
78.8615
74.7325
-0.220372
74.4755
71.9186
-0.0790758
71.556
69.5032
-0.0144077
69.6317
67.652
0.0164462
68.3779
66.3424
0.031873
67.5698
65.5017
0.0397164
67.0472
65.0504
0.0433488
66.689
64.913
0.0438973
66.3992
65.017
0.0414931
66.0994
65.2858
0.0357609
65.7299
65.6281
0.0262079
65.2617
65.9206
0.0126361
64.726
65.9854
-0.0047449
64.2772
65.5645
-0.0261962
64.3056
64.3066
-0.056051
65.6013
61.8375
-0.112339
35.0504
58.1729
-0.261901
6.59143
56.6373
-0.508276
11.312
60.097
-0.365868
14.3938
65.0819
-0.275933
15.9112
70.545
-0.298164
16.0258
75.9673
-0.484612
14.9097
81.0322
-0.855009
12.7069
85.4904
-1.32718
9.39018
89.1232
-1.39616
4.97442
91.712
-0.743012
93.0698
-0.422148
2.38099
31.8769
0.0745497
4.75219
32.2976
0.0782085
7.09143
33.1686
0.0843198
9.36175
34.5554
0.0927382
11.4903
36.5766
0.104053
13.3193
39.4389
0.11952
14.4874
43.5013
0.141436
14.1554
49.3714
0.173376
10.5084
57.8748
0.218721
50.8582
68.6299
0.266313
117.393
97.0549
-4.82762
95.0147
98.4128
-1.97715
82.8946
89.6159
-0.528799
76.0476
81.7265
-0.154525
72.0601
75.9225
-0.0167445
69.7048
71.8166
0.041758
68.3222
68.9649
0.0694015
67.5372
67.0432
0.0840723
67.1186
65.8278
0.0925236
66.9099
65.1622
0.0970129
66.793