/*--------------------------------*- C++ -*----------------------------------*\
| =========                 |                                                 |
| \\      /  F ield         | OpenFOAM: The Open Source CFD Toolbox           |
|  \\    /   O peration     | Version:  2.1.0                                 |
|   \\  /    A nd           | Web:      www.OpenFOAM.org                      |
|    \\/     M anipulation  |                                                 |
\*---------------------------------------------------------------------------*/
FoamFile
{
    version     2.0;
    format      ascii;
    class       volScalarField;
    location    "32120";
    object      so;
}
// * * * * * * * * * * * * * * * * * * * * * * * * * * * * * * * * * * * * * //

dimensions      [0 0 0 0 0 0 0];

internalField   nonuniform List<scalar> 
8000
(
0.273413
0.286212
0.302155
0.319232
0.336307
0.352813
0.368486
0.383224
0.397012
0.409883
0.421893
0.43309
0.44352
0.453238
0.462303
0.470776
0.478716
0.486177
0.493214
0.499883
0.506236
0.512321
0.518187
0.523881
0.529452
0.534953
0.540445
0.546
0.551706
0.557675
0.564059
0.571075
0.579048
0.588519
0.600469
0.616833
0.641598
0.68196
0.741784
0.789676
0.286211
0.297822
0.312312
0.32799
0.343855
0.35937
0.374255
0.388377
0.401692
0.414205
0.425941
0.436922
0.447181
0.456759
0.465707
0.474083
0.481939
0.489323
0.496292
0.502897
0.509186
0.515206
0.521
0.526613
0.532088
0.537478
0.542838
0.548239
0.553769
0.559545
0.565725
0.572532
0.580302
0.589584
0.601372
0.617626
0.642383
0.682894
0.742707
0.789958
0.302154
0.312312
0.325085
0.33911
0.353534
0.367854
0.38178
0.39515
0.407888
0.419964
0.431362
0.442073
0.452112
0.461506
0.470299
0.478538
0.486269
0.49354
0.500402
0.506903
0.513087
0.518995
0.524664
0.530134
0.535445
0.540641
0.545777
0.550923
0.55617
0.561642
0.567511
0.574015
0.581502
0.590534
0.602116
0.618225
0.642941
0.683558
0.743363
0.790158
0.319231
0.32799
0.33911
0.351523
0.364516
0.377628
0.390572
0.403169
0.415318
0.426944
0.437988
0.448414
0.458213
0.467402
0.476016
0.484094
0.491675
0.498807
0.505538
0.511909
0.517959
0.523723
0.529231
0.534515
0.539607
0.544543
0.549373
0.554164
0.559015
0.564063
0.5695
0.57559
0.582703
0.591416
0.602744
0.618677
0.64333
0.684033
0.743851
0.79031
0.336307
0.343855
0.353533
0.364516
0.37621
0.388211
0.400248
0.41214
0.423755
0.434973
0.445697
0.455858
0.465429
0.474417
0.482847
0.490751
0.498172
0.505155
0.511745
0.517977
0.523884
0.529493
0.534825
0.539901
0.544739
0.549366
0.553819
0.558161
0.562494
0.566974
0.571829
0.577367
0.583993
0.592304
0.603323
0.619051
0.643633
0.684429
0.744292
0.790456
0.352812
0.359369
0.367854
0.377628
0.388211
0.399258
0.410528
0.421837
0.433024
0.443933
0.454424
0.464387
0.473775
0.482585
0.49084
0.498577
0.505844
0.512686
0.519144
0.525249
0.531027
0.536494
0.541663
0.546538
0.55112
0.555415
0.55944
0.56324
0.566917
0.570649
0.574718
0.579514
0.585502
0.593304
0.60395
0.619447
0.643966
0.684891
0.744835
0.790644
0.368485
0.374254
0.38178
0.390572
0.400248
0.410527
0.421199
0.432082
0.443002
0.453775
0.464198
0.474085
0.483366
0.492043
0.500151
0.507747
0.514886
0.521616
0.527975
0.533992
0.539685
0.545062
0.550121
0.554848
0.55922
0.563209
0.566791
0.569975
0.572837
0.575572
0.578547
0.582314
0.587438
0.594577
0.604763
0.619999
0.644477
0.685596
0.745653
0.790926
0.383224
0.388377
0.39515
0.403169
0.41214
0.421837
0.432082
0.442722
0.453607
0.464542
0.475219
0.485237
0.494525
0.503131
0.511145
0.518651
0.525716
0.532393
0.538722
0.544731
0.550432
0.555826
0.560896
0.565607
0.569902
0.573702
0.576916
0.579462
0.581335
0.582704
0.584048
0.586277
0.590145
0.596367
0.605953
0.620879
0.645348
0.686753
0.746936
0.791351
0.397011
0.401691
0.407887
0.415318
0.423754
0.433024
0.443002
0.453607
0.464787
0.476444
0.488146
0.498638
0.508083
0.516722
0.524732
0.532238
0.539331
0.546074
0.552514
0.558679
0.564582
0.570219
0.575561
0.580554
0.585099
0.589049
0.592195
0.594269
0.59502
0.594405
0.592972
0.592494
0.594251
0.599046
0.607774
0.622295
0.646782
0.68858
0.748862
0.791953
0.409882
0.414204
0.419964
0.426944
0.434973
0.443933
0.453775
0.464542
0.476444
0.490005
0.505848
0.517318
0.527131
0.535981
0.544183
0.551921
0.559315
0.566451
0.573392
0.580181
0.586849
0.593401
0.599815
0.606024
0.611897
0.617196
0.621518
0.624192
0.624183
0.620245
0.612097
0.604212
0.601098
0.603193
0.610526
0.624459
0.648976
0.69128
0.751568
0.792739
0.421892
0.42594
0.431362
0.437988
0.445696
0.454424
0.464198
0.475218
0.488146
0.505848
0.762427
0.770628
0.767486
0.765912
0.765416
0.76561
0.76628
0.767284
0.768523
0.769912
0.771382
0.772863
0.774279
0.775544
0.776542
0.777089
0.776846
0.775057
0.769565
0.752992
0.617422
0.61016
0.606684
0.607646
0.613973
0.627401
0.652043
0.694988
0.755105
0.793676
0.433089
0.436922
0.442073
0.448413
0.455858
0.464387
0.474085
0.485237
0.498638
0.517318
0.770628
0.797701
0.798417
0.798203
0.798079
0.79804
0.798061
0.798125
0.798218
0.798327
0.798444
0.798559
0.798665
0.798752
0.798812
0.798832
0.79878
0.798593
0.798084
0.796728
0.623172
0.615289
0.611719
0.612167
0.617895
0.631042
0.656002
0.699766
0.759415
0.7947
0.443519
0.44718
0.452111
0.458212
0.465429
0.473774
0.483366
0.494524
0.508083
0.527131
0.767485
0.798417
0.799911
0.799943
0.799936
0.799932
0.799933
0.799934
0.799937
0.799941
0.799945
0.79995
0.799954
0.799958
0.799959
0.79996
0.799958
0.79995
0.799931
0.799892
0.629021
0.62029
0.616593
0.616766
0.62218
0.635296
0.660829
0.705603
0.764326
0.795729
0.453238
0.456758
0.461505
0.467402
0.474417
0.482585
0.492043
0.503131
0.516722
0.535981
0.765912
0.798203
0.799943
0.799998
0.799998
0.799998
0.799998
0.799998
0.799998
0.799998
0.799998
0.799999
0.799999
0.799999
0.799999
0.799999
0.799999
0.799999
0.799999
0.799997
0.634976
0.625347
0.621477
0.621482
0.626784
0.640108
0.666491
0.712444
0.769584
0.796688
0.462303
0.465707
0.470298
0.476016
0.482847
0.49084
0.50015
0.511145
0.524731
0.544183
0.765416
0.798079
0.799936
0.799998
0.8
0.8
0.8
0.8
0.8
0.8
0.8
0.8
0.8
0.8
0.8
0.8
0.8
0.8
0.8
0.8
0.641042
0.630524
0.626454
0.626356
0.631701
0.645458
0.672977
0.720187
0.774884
0.79752
0.470776
0.474082
0.478538
0.484094
0.490751
0.498577
0.507746
0.51865
0.532238
0.551921
0.76561
0.79804
0.799932
0.799998
0.8
0.8
0.8
0.8
0.8
0.8
0.8
0.8
0.8
0.8
0.8
0.8
0.8
0.8
0.8
0.8
0.647238
0.63586
0.631577
0.631429
0.636953
0.651361
0.680285
0.728669
0.779919
0.798201
0.478716
0.481938
0.486269
0.491675
0.498171
0.505843
0.514886
0.525715
0.539331
0.559315
0.76628
0.798061
0.799933
0.799998
0.8
0.8
0.8
0.8
0.8
0.8
0.8
0.8
0.8
0.8
0.8
0.8
0.8
0.8
0.8
0.8
0.653596
0.641393
0.636895
0.636752
0.642586
0.657859
0.688415
0.737638
0.784433
0.798729
0.486176
0.489323
0.49354
0.498807
0.505155
0.512686
0.521616
0.532392
0.546074
0.566451
0.767284
0.798125
0.799934
0.799998
0.8
0.8
0.8
0.8
0.8
0.8
0.8
0.8
0.8
0.8
0.8
0.8
0.8
0.8
0.8
0.8
0.660169
0.647173
0.642467
0.642391
0.648667
0.665015
0.697326
0.746744
0.788263
0.79912
0.493213
0.496292
0.500402
0.505537
0.511744
0.519143
0.527975
0.538722
0.552514
0.573391
0.768523
0.798218
0.799937
0.799998
0.8
0.8
0.8
0.8
0.8
0.8
0.8
0.8
0.8
0.8
0.8
0.8
0.8
0.8
0.8
0.8
0.667033
0.653273
0.648372
0.648429
0.655281
0.672897
0.706886
0.755561
0.791346
0.7994
0.499882
0.502896
0.506903
0.511908
0.517976
0.525249
0.533992
0.54473
0.558678
0.580181
0.769912
0.798327
0.799941
0.799998
0.8
0.8
0.8
0.8
0.8
0.8
0.8
0.8
0.8
0.8
0.8
0.8
0.8
0.8
0.8
0.8
0.674287
0.659788
0.654711
0.654972
0.662527
0.681551
0.71682
0.763678
0.793714
0.799593
0.506235
0.509186
0.513087
0.517958
0.523884
0.531026
0.539685
0.550432
0.564582
0.586848
0.771382
0.798445
0.799945
0.799998
0.8
0.8
0.8
0.8
0.8
0.8
0.8
0.8
0.8
0.8
0.8
0.8
0.8
0.8
0.8
0.8
0.682053
0.666843
0.661609
0.662142
0.670505
0.690949
0.726841
0.770784
0.795458
0.799723
0.512321
0.515206
0.518994
0.523722
0.529492
0.536494
0.545062
0.555826
0.570218
0.5934
0.772863
0.798559
0.79995
0.799999
0.8
0.8
0.8
0.8
0.8
0.8
0.8
0.8
0.8
0.8
0.8
0.8
0.8
0.8
0.8
0.8
0.690467
0.674588
0.669217
0.670074
0.679285
0.700929
0.736564
0.776724
0.7967
0.799809
0.518187
0.521
0.524664
0.529231
0.534825
0.541663
0.550121
0.560896
0.575561
0.599814
0.774279
0.798665
0.799954
0.799999
0.8
0.8
0.8
0.8
0.8
0.8
0.8
0.8
0.8
0.8
0.8
0.8
0.8
0.8
0.8
0.8
0.699649
0.683189
0.677695
0.678882
0.688855
0.711127
0.745544
0.78149
0.79756
0.799865
0.52388
0.526612
0.530134
0.534515
0.5399
0.546537
0.554848
0.565607
0.580553
0.606024
0.775544
0.798752
0.799958
0.799999
0.8
0.8
0.8
0.8
0.8
0.8
0.8
0.8
0.8
0.8
0.8
0.8
0.8
0.8
0.8
0.8
0.709641
0.692784
0.687174
0.688617
0.699054
0.720987
0.753422
0.78517
0.798138
0.7999
0.529451
0.532088
0.535445
0.539606
0.544739
0.55112
0.55922
0.569901
0.585099
0.611896
0.776542
0.798812
0.799959
0.799999
0.8
0.8
0.8
0.8
0.8
0.8
0.8
0.8
0.8
0.8
0.8
0.8
0.8
0.8
0.8
0.8
0.720311
0.703412
0.697685
0.69918
0.7095
0.730111
0.76002
0.787896
0.798513
0.799921
0.534953
0.537477
0.540641
0.544542
0.549365
0.555415
0.563208
0.573702
0.589049
0.617196
0.777089
0.798832
0.79996
0.799999
0.8
0.8
0.8
0.8
0.8
0.8
0.8
0.8
0.8
0.8
0.8
0.8
0.8
0.8
0.8
0.8
0.731262
0.714892
0.709046
0.710239
0.71961
0.738288
0.765336
0.789814
0.79874
0.799933
0.540445
0.542837
0.545777
0.549372
0.553818
0.559439
0.566791
0.576915
0.592194
0.621518
0.776846
0.79878
0.799958
0.799999
0.8
0.8
0.8
0.8
0.8
0.8
0.8
0.8
0.8
0.8
0.8
0.8
0.8
0.8
0.8
0.8
0.742111
0.726765
0.72079
0.721219
0.728976
0.745421
0.769491
0.791069
0.798856
0.799937
0.546
0.548238
0.550922
0.554164
0.55816
0.56324
0.569975
0.579462
0.594269
0.624192
0.775057
0.798593
0.79995
0.799999
0.8
0.8
0.8
0.8
0.8
0.8
0.8
0.8
0.8
0.8
0.8
0.8
0.8
0.8
0.8
0.8
0.752747
0.738831
0.732519
0.731809
0.737667
0.751591
0.772682
0.791805
0.798883
0.799935
0.551705
0.553769
0.556169
0.559015
0.562493
0.566917
0.572837
0.581335
0.595019
0.624183
0.769565
0.798084
0.799931
0.799999
0.8
0.8
0.8
0.8
0.8
0.8
0.8
0.8
0.8
0.8
0.8
0.8
0.8
0.8
0.8
0.8
0.763201
0.751204
0.744399
0.742226
0.745903
0.757065
0.775178
0.792168
0.79884
0.799926
0.557674
0.559545
0.561642
0.564063
0.566974
0.570648
0.575571
0.582704
0.594405
0.620245
0.752991
0.796728
0.799892
0.799997
0.8
0.8
0.8
0.8
0.8
0.8
0.8
0.8
0.8
0.8
0.8
0.8
0.8
0.8
0.8
0.8
0.773948
0.764243
0.756797
0.75287
0.754103
0.762295
0.777356
0.792341
0.798748
0.799912
0.564059
0.565725
0.567511
0.5695
0.571829
0.574718
0.578547
0.584048
0.592972
0.612097
0.617421
0.623171
0.62902
0.634976
0.641042
0.647238
0.653595
0.660169
0.667033
0.674286
0.682053
0.690467
0.699649
0.709641
0.720311
0.731262
0.74211
0.752747
0.763201
0.773948
0.781075
0.776926
0.769727
0.764143
0.762823
0.767891
0.77973
0.792588
0.798659
0.799893
0.571074
0.572532
0.574014
0.575589
0.577366
0.579514
0.582314
0.586277
0.592494
0.604212
0.61016
0.615289
0.62029
0.625346
0.630524
0.63586
0.641392
0.647173
0.653273
0.659788
0.666842
0.674588
0.683188
0.692784
0.703412
0.714892
0.726765
0.738831
0.751204
0.764243
0.776926
0.782
0.779784
0.775018
0.772121
0.774349
0.782884
0.793286
0.798611
0.79987
0.579048
0.580302
0.581501
0.582703
0.583993
0.585502
0.587437
0.590145
0.594251
0.601098
0.606683
0.611718
0.616593
0.621477
0.626454
0.631577
0.636894
0.642467
0.648372
0.65471
0.661609
0.669217
0.677694
0.687174
0.697684
0.709046
0.720789
0.732519
0.744399
0.756797
0.769727
0.779784
0.783966
0.783117
0.780935
0.781537
0.787157
0.794416
0.798625
0.799845
0.588519
0.589584
0.590534
0.591416
0.592304
0.593304
0.594577
0.596367
0.599046
0.603192
0.607645
0.612167
0.616766
0.621482
0.626356
0.631429
0.636752
0.642391
0.648429
0.654972
0.662142
0.670074
0.678882
0.688617
0.69918
0.710239
0.721219
0.731809
0.742226
0.75287
0.764143
0.775019
0.783117
0.78692
0.787598
0.788077
0.791091
0.7956
0.798704
0.799822
0.600468
0.601372
0.602115
0.602743
0.603322
0.60395
0.604763
0.605953
0.607774
0.610526
0.613973
0.617895
0.62218
0.626784
0.631701
0.636953
0.642586
0.648667
0.655281
0.662527
0.670505
0.679284
0.688855
0.699054
0.7095
0.71961
0.728976
0.737667
0.745903
0.754103
0.762823
0.772121
0.780935
0.787598
0.790932
0.792332
0.794103
0.796699
0.798835
0.799802
0.616833
0.617626
0.618225
0.618676
0.619051
0.619447
0.619998
0.620879
0.622295
0.624459
0.627401
0.631041
0.635296
0.640107
0.645458
0.651361
0.657859
0.665015
0.672897
0.68155
0.690949
0.700929
0.711127
0.720987
0.730111
0.738288
0.745421
0.751591
0.757065
0.762295
0.767891
0.774349
0.781537
0.788077
0.792332
0.794559
0.796024
0.797576
0.798988
0.799787
0.641597
0.642383
0.642941
0.64333
0.643633
0.643966
0.644477
0.645347
0.646782
0.648975
0.652042
0.656002
0.660828
0.666491
0.672977
0.680285
0.688415
0.697326
0.706886
0.71682
0.726841
0.736563
0.745543
0.753421
0.76002
0.765336
0.769491
0.772682
0.775178
0.777356
0.77973
0.782884
0.787157
0.791091
0.794103
0.796024
0.797229
0.798226
0.799144
0.799777
0.68196
0.682894
0.683558
0.684033
0.684429
0.684891
0.685596
0.686753
0.68858
0.69128
0.694988
0.699766
0.705603
0.712444
0.720187
0.728669
0.737639
0.746744
0.755561
0.763678
0.770784
0.776724
0.78149
0.78517
0.787896
0.789814
0.791069
0.791805
0.792168
0.792341
0.792588
0.793286
0.794416
0.7956
0.796699
0.797576
0.798226
0.798776
0.799319
0.799779
0.741784
0.742707
0.743363
0.743851
0.744292
0.744835
0.745653
0.746936
0.748862
0.751568
0.755105
0.759415
0.764326
0.769584
0.774884
0.779919
0.784434
0.788263
0.791346
0.793714
0.795458
0.7967
0.79756
0.798138
0.798513
0.79874
0.798856
0.798883
0.79884
0.798748
0.798659
0.798611
0.798625
0.798704
0.798835
0.798988
0.799144
0.799319
0.799546
0.799813
0.789676
0.789958
0.790158
0.79031
0.790457
0.790644
0.790926
0.791351
0.791953
0.792739
0.793676
0.7947
0.795729
0.796688
0.79752
0.798201
0.798729
0.79912
0.7994
0.799593
0.799723
0.799809
0.799865
0.7999
0.799921
0.799933
0.799937
0.799935
0.799926
0.799912
0.799893
0.79987
0.799845
0.799822
0.799802
0.799787
0.799777
0.799779
0.799813
0.799895
0.222392
0.235593
0.254464
0.275749
0.297103
0.317413
0.336276
0.353605
0.369451
0.383917
0.397127
0.409219
0.420327
0.430561
0.440016
0.448781
0.456938
0.464568
0.471731
0.47849
0.484898
0.49101
0.496874
0.502538
0.508052
0.513468
0.518842
0.524241
0.529742
0.535442
0.541464
0.547972
0.555188
0.563433
0.573183
0.585225
0.601254
0.626654
0.67762
0.76095
0.23559
0.249024
0.266884
0.286541
0.306282
0.325233
0.343017
0.359512
0.374717
0.388691
0.401527
0.413336
0.424225
0.434284
0.443595
0.452238
0.460292
0.467829
0.474908
0.481585
0.487914
0.493943
0.499717
0.505281
0.510682
0.515966
0.521188
0.526413
0.531721
0.53721
0.543012
0.549297
0.556297
0.56434
0.573911
0.585801
0.601704
0.627014
0.678027
0.761298
0.254463
0.266884
0.282834
0.300322
0.318066
0.335347
0.3518
0.367255
0.381659
0.39502
0.407389
0.418842
0.429447
0.439271
0.448384
0.456856
0.464761
0.472161
0.479111
0.485662
0.491863
0.497757
0.503384
0.508784
0.513997
0.519066
0.524044
0.528996
0.534004
0.539178
0.544661
0.550638
0.557355
0.565151
0.574516
0.586245
0.602021
0.627235
0.678259
0.761505
0.275748
0.286541
0.300322
0.315581
0.331311
0.346894
0.361973
0.376344
0.389907
0.402624
0.414505
0.425575
0.435867
0.445426
0.454308
0.462579
0.470304
0.477535
0.484324
0.490717
0.496756
0.502478
0.507916
0.513102
0.518068
0.522852
0.527503
0.532084
0.536685
0.541429
0.546481
0.552052
0.558408
0.565901
0.575031
0.586587
0.60224
0.627361
0.678386
0.761639
0.297103
0.306281
0.318065
0.33131
0.34521
0.359229
0.373026
0.386379
0.399157
0.411284
0.422716
0.433424
0.443407
0.452695
0.461336
0.469395
0.476922
0.483968
0.490579
0.496798
0.502658
0.508188
0.513414
0.518356
0.523036
0.527481
0.53173
0.535845
0.539921
0.544103
0.548587
0.553628
0.559525
0.56665
0.575506
0.586877
0.60241
0.627452
0.678501
0.761785
0.317412
0.325232
0.335347
0.346894
0.359229
0.371897
0.38458
0.397062
0.409192
0.420853
0.431932
0.442343
0.452056
0.461092
0.469506
0.477352
0.484679
0.491539
0.497974
0.504019
0.509702
0.515044
0.520057
0.52475
0.529129
0.533204
0.536995
0.540553
0.543975
0.547427
0.55116
0.555505
0.560813
0.567481
0.576014
0.587181
0.602598
0.627588
0.678719
0.762045
0.336275
0.343016
0.351799
0.361972
0.373025
0.38458
0.396362
0.408176
0.419865
0.431256
0.442155
0.452388
0.461904
0.470738
0.47895
0.486598
0.493741
0.50043
0.506706
0.512599
0.51813
0.523311
0.528143
0.532618
0.536719
0.540429
0.543737
0.546663
0.549285
0.551789
0.554505
0.557907
0.562437
0.568522
0.57666
0.587592
0.602893
0.627864
0.679173
0.762538
0.353605
0.359511
0.367255
0.376344
0.386379
0.397062
0.408176
0.419567
0.431081
0.442516
0.453558
0.463816
0.473251
0.481946
0.489991
0.497472
0.504459
0.51101
0.517164
0.522951
0.528385
0.533469
0.538193
0.54253
0.546437
0.549856
0.552722
0.554986
0.556661
0.557915
0.559175
0.561223
0.56466
0.569957
0.577585
0.588229
0.603398
0.628387
0.680011
0.763383
0.369451
0.374716
0.381659
0.389907
0.399157
0.409192
0.419865
0.431081
0.44277
0.454816
0.466771
0.477388
0.486884
0.495502
0.503426
0.510784
0.517665
0.524134
0.530237
0.536002
0.541441
0.546553
0.551315
0.555686
0.559593
0.562929
0.565545
0.567258
0.567898
0.567463
0.566415
0.566229
0.56793
0.572056
0.578972
0.589228
0.604227
0.629271
0.681382
0.764687
0.383916
0.388691
0.39502
0.402624
0.411284
0.420853
0.431256
0.442516
0.454816
0.46865
0.484575
0.49597
0.505618
0.514215
0.522078
0.529392
0.536271
0.542794
0.549015
0.554969
0.560673
0.566126
0.571305
0.576158
0.580592
0.584451
0.58748
0.589266
0.589159
0.586333
0.580522
0.574971
0.573083
0.575183
0.581013
0.590716
0.605474
0.630611
0.683419
0.766522
0.397126
0.401526
0.407389
0.414505
0.422716
0.431932
0.442155
0.453558
0.46677
0.484574
0.753514
0.76194
0.757171
0.754275
0.752689
0.751937
0.751758
0.751991
0.752517
0.75324
0.754077
0.754941
0.755737
0.756343
0.756593
0.756215
0.754702
0.750897
0.741454
0.715517
0.585217
0.57956
0.577301
0.578517
0.583531
0.592689
0.607176
0.632466
0.686219
0.768901
0.409218
0.413335
0.418841
0.425575
0.433424
0.442343
0.452388
0.463816
0.477388
0.49597
0.76194
0.796298
0.797343
0.79688
0.79654
0.796329
0.796216
0.796179
0.796197
0.796254
0.796333
0.79642
0.796497
0.796547
0.796542
0.796442
0.796164
0.795523
0.793998
0.790113
0.590435
0.583528
0.581081
0.58187
0.586348
0.595062
0.609296
0.634842
0.68984
0.771774
0.420326
0.424224
0.429446
0.435867
0.443407
0.452055
0.461904
0.473251
0.486883
0.505618
0.757171
0.797343
0.799825
0.799882
0.799862
0.799847
0.799837
0.799832
0.799831
0.799833
0.799835
0.799839
0.799843
0.799846
0.799845
0.799839
0.799824
0.799791
0.799717
0.799569
0.595458
0.587308
0.584683
0.585229
0.589359
0.597737
0.611766
0.637707
0.694307
0.775025
0.43056
0.434283
0.439271
0.445425
0.452694
0.461092
0.470738
0.481946
0.495502
0.514214
0.754275
0.79688
0.799882
0.799993
0.799996
0.799995
0.799994
0.799994
0.799994
0.799994
0.799995
0.799995
0.799995
0.799995
0.799995
0.799994
0.799994
0.799993
0.799991
0.799988
0.600337
0.591019
0.588217
0.588605
0.592505
0.600632
0.614507
0.641023
0.699629
0.778496
0.440016
0.443594
0.448384
0.454308
0.461336
0.469506
0.47895
0.489991
0.503426
0.522078
0.752689
0.79654
0.799862
0.799996
0.8
0.8
0.8
0.8
0.8
0.8
0.8
0.8
0.8
0.8
0.8
0.8
0.8
0.8
0.8
0.8
0.605102
0.594702
0.591732
0.592008
0.595748
0.603678
0.617446
0.644757
0.705815
0.782005
0.448781
0.452238
0.456856
0.462579
0.469394
0.477351
0.486598
0.497471
0.510783
0.529391
0.751937
0.796329
0.799847
0.799995
0.8
0.8
0.8
0.8
0.8
0.8
0.8
0.8
0.8
0.8
0.8
0.8
0.8
0.8
0.8
0.8
0.609769
0.598379
0.595251
0.595443
0.599062
0.60682
0.620524
0.648892
0.712861
0.785375
0.456938
0.460291
0.464761
0.470304
0.476921
0.484679
0.493741
0.504459
0.517665
0.53627
0.751758
0.796216
0.799837
0.799994
0.8
0.8
0.8
0.8
0.8
0.8
0.8
0.8
0.8
0.8
0.8
0.8
0.8
0.8
0.8
0.8
0.614355
0.602063
0.598792
0.598913
0.602424
0.61001
0.623699
0.653437
0.720728
0.788452
0.464567
0.467829
0.472161
0.477535
0.483967
0.491539
0.50043
0.51101
0.524134
0.542793
0.751991
0.796179
0.799832
0.799994
0.8
0.8
0.8
0.8
0.8
0.8
0.8
0.8
0.8
0.8
0.8
0.8
0.8
0.8
0.8
0.8
0.618876
0.605766
0.602362
0.602416
0.60581
0.613202
0.626956
0.658427
0.729298
0.791126
0.471731
0.474908
0.479111
0.484323
0.490579
0.497973
0.506705
0.517164
0.530237
0.549015
0.752517
0.796197
0.799831
0.799994
0.8
0.8
0.8
0.8
0.8
0.8
0.8
0.8
0.8
0.8
0.8
0.8
0.8
0.8
0.8
0.8
0.623344
0.609498
0.605966
0.605943
0.609191
0.61635
0.630324
0.663925
0.738322
0.793339
0.478489
0.481585
0.485662
0.490716
0.496797
0.504018
0.512598
0.52295
0.536001
0.554969
0.753241
0.796254
0.799833
0.799994
0.8
0.8
0.8
0.8
0.8
0.8
0.8
0.8
0.8
0.8
0.8
0.8
0.8
0.8
0.8
0.8
0.627768
0.613263
0.609599
0.609476
0.612528
0.619415
0.633892
0.670016
0.747407
0.795084
0.484898
0.487913
0.491862
0.496755
0.502657
0.509702
0.51813
0.528384
0.541441
0.560672
0.754077
0.796333
0.799835
0.799995
0.8
0.8
0.8
0.8
0.8
0.8
0.8
0.8
0.8
0.8
0.8
0.8
0.8
0.8
0.8
0.8
0.632147
0.617061
0.613247
0.612984
0.615775
0.622368
0.637674
0.676775
0.756062
0.796399
0.491009
0.493942
0.497756
0.502477
0.508188
0.515043
0.523311
0.533469
0.546552
0.566125
0.754941
0.79642
0.799839
0.799995
0.8
0.8
0.8
0.8
0.8
0.8
0.8
0.8
0.8
0.8
0.8
0.8
0.8
0.8
0.8
0.8
0.636468
0.620878
0.616883
0.616424
0.61888
0.625214
0.641663
0.684231
0.763816
0.797349
0.496873
0.499716
0.503383
0.507915
0.513413
0.520057
0.528143
0.538193
0.551315
0.571304
0.755737
0.796497
0.799843
0.799995
0.8
0.8
0.8
0.8
0.8
0.8
0.8
0.8
0.8
0.8
0.8
0.8
0.8
0.8
0.8
0.8
0.640715
0.624695
0.62047
0.619744
0.621802
0.628023
0.645866
0.692293
0.77034
0.79801
0.502537
0.505281
0.508783
0.513101
0.518355
0.52475
0.532617
0.542529
0.555685
0.576157
0.756343
0.796547
0.799846
0.799995
0.8
0.8
0.8
0.8
0.8
0.8
0.8
0.8
0.8
0.8
0.8
0.8
0.8
0.8
0.8
0.8
0.644885
0.628506
0.623972
0.622904
0.624545
0.630983
0.65028
0.700677
0.775494
0.798452
0.508052
0.510681
0.513996
0.518067
0.523035
0.529129
0.536719
0.546436
0.559592
0.580592
0.756593
0.796542
0.799845
0.799995
0.8
0.8
0.8
0.8
0.8
0.8
0.8
0.8
0.8
0.8
0.8
0.8
0.8
0.8
0.8
0.8
0.649046
0.632353
0.6274
0.625916
0.627202
0.63416
0.654858
0.708869
0.77929
0.79873
0.513468
0.515965
0.519065
0.522852
0.52748
0.533203
0.540428
0.549855
0.562928
0.584451
0.756215
0.796442
0.799839
0.799994
0.8
0.8
0.8
0.8
0.8
0.8
0.8
0.8
0.8
0.8
0.8
0.8
0.8
0.8
0.8
0.8
0.653434
0.636431
0.630898
0.628934
0.630055
0.637519
0.659488
0.716185
0.78182
0.798882
0.518842
0.521187
0.524043
0.527502
0.531729
0.536994
0.543737
0.552722
0.565545
0.58748
0.754702
0.796164
0.799824
0.799994
0.8
0.8
0.8
0.8
0.8
0.8
0.8
0.8
0.8
0.8
0.8
0.8
0.8
0.8
0.8
0.8
0.658393
0.64123
0.634899
0.632396
0.633392
0.641048
0.66399
0.721961
0.783192
0.798928
0.524241
0.526413
0.528995
0.532083
0.535844
0.540552
0.546662
0.554985
0.567258
0.589265
0.750897
0.795523
0.799791
0.799993
0.8
0.8
0.8
0.8
0.8
0.8
0.8
0.8
0.8
0.8
0.8
0.8
0.8
0.8
0.8
0.8
0.664293
0.647362
0.640087
0.636807
0.637333
0.644771
0.668142
0.725751
0.783491
0.798873
0.529742
0.53172
0.534004
0.536684
0.539921
0.543974
0.549284
0.556661
0.567898
0.589159
0.741454
0.793998
0.799717
0.799991
0.8
0.8
0.8
0.8
0.8
0.8
0.8
0.8
0.8
0.8
0.8
0.8
0.8
0.8
0.8
0.8
0.672023
0.655771
0.647213
0.642655
0.642169
0.648813
0.671786
0.72745
0.782766
0.798704
0.535442
0.53721
0.539178
0.541429
0.544102
0.547426
0.551788
0.557915
0.567462
0.586333
0.715518
0.790113
0.799569
0.799988
0.8
0.8
0.8
0.8
0.8
0.8
0.8
0.8
0.8
0.8
0.8
0.8
0.8
0.8
0.8
0.8
0.68419
0.668792
0.657974
0.651054
0.648593
0.653562
0.675005
0.727333
0.781067
0.798396
0.541464
0.543012
0.544661
0.546481
0.548586
0.55116
0.554504
0.559175
0.566414
0.580522
0.585217
0.590435
0.595458
0.600337
0.605102
0.609769
0.614355
0.618876
0.623344
0.627769
0.632147
0.636468
0.640715
0.644885
0.649046
0.653434
0.658393
0.664293
0.672023
0.68419
0.695482
0.687666
0.674785
0.664035
0.658024
0.659904
0.678302
0.726096
0.778562
0.797914
0.547971
0.549296
0.550638
0.552051
0.553627
0.555504
0.557907
0.561222
0.566228
0.574971
0.57956
0.583528
0.587308
0.591019
0.594702
0.598379
0.602062
0.605766
0.609497
0.613263
0.617061
0.620877
0.624695
0.628505
0.632353
0.636431
0.64123
0.647362
0.655771
0.668792
0.687666
0.696655
0.691862
0.680995
0.671515
0.669101
0.682736
0.724509
0.775399
0.797212
0.555188
0.556296
0.557355
0.558407
0.559524
0.560813
0.562437
0.56466
0.56793
0.573083
0.5773
0.58108
0.584683
0.588217
0.591731
0.595251
0.598792
0.602362
0.605965
0.609599
0.613247
0.616883
0.62047
0.623972
0.6274
0.630898
0.634899
0.640087
0.647213
0.657974
0.674785
0.691862
0.699951
0.69661
0.687715
0.681792
0.689677
0.724264
0.772179
0.796293
0.563432
0.564339
0.56515
0.565901
0.566649
0.56748
0.568521
0.569957
0.572056
0.575183
0.578516
0.58187
0.585229
0.588605
0.592008
0.595443
0.598913
0.602416
0.605943
0.609476
0.612984
0.616424
0.619744
0.622904
0.625916
0.628934
0.632396
0.636807
0.642655
0.651054
0.664035
0.680996
0.69661
0.704212
0.702154
0.696848
0.700438
0.727169
0.769914
0.795253
0.573182
0.57391
0.574516
0.57503
0.575505
0.576013
0.576659
0.577585
0.578972
0.581013
0.583531
0.586348
0.589359
0.592505
0.595747
0.599061
0.602424
0.60581
0.609191
0.612528
0.615775
0.61888
0.621802
0.624545
0.627202
0.630055
0.633392
0.637333
0.642169
0.648593
0.658024
0.671516
0.687715
0.702154
0.70995
0.710869
0.71394
0.733864
0.769563
0.794287
0.585224
0.5858
0.586244
0.586587
0.586876
0.58718
0.587592
0.588229
0.589228
0.590716
0.592689
0.595062
0.597737
0.600632
0.603678
0.60682
0.61001
0.613202
0.61635
0.619415
0.622368
0.625214
0.628023
0.630983
0.63416
0.637519
0.641048
0.644771
0.648813
0.653562
0.659904
0.669101
0.681792
0.696848
0.710869
0.720116
0.727191
0.743268
0.771435
0.793622
0.601254
0.601704
0.602021
0.60224
0.60241
0.602598
0.602893
0.603398
0.604227
0.605474
0.607176
0.609296
0.611766
0.614507
0.617446
0.620524
0.623699
0.626956
0.630324
0.633892
0.637674
0.641663
0.645866
0.65028
0.654858
0.659488
0.66399
0.668142
0.671786
0.675005
0.678302
0.682736
0.689677
0.700437
0.71394
0.727191
0.738775
0.753622
0.775141
0.793454
0.626653
0.627014
0.627235
0.62736
0.627452
0.627588
0.627863
0.628387
0.629271
0.630611
0.632466
0.634842
0.637707
0.641023
0.644757
0.648892
0.653437
0.658427
0.663925
0.670016
0.676775
0.68423
0.692293
0.700677
0.708869
0.716185
0.721961
0.725751
0.72745
0.727333
0.726095
0.724509
0.724264
0.727168
0.733863
0.743268
0.753622
0.765635
0.780621
0.794026
0.67762
0.678026
0.678258
0.678386
0.678501
0.678718
0.679173
0.680011
0.681382
0.683419
0.686219
0.68984
0.694307
0.699629
0.705815
0.712861
0.720728
0.729298
0.738322
0.747407
0.756062
0.763816
0.77034
0.775494
0.77929
0.78182
0.783192
0.783491
0.782766
0.781067
0.778562
0.775398
0.772179
0.769913
0.769562
0.771435
0.775141
0.78062
0.788045
0.795603
0.76095
0.761298
0.761505
0.761639
0.761785
0.762045
0.762538
0.763383
0.764687
0.766522
0.768901
0.771774
0.775025
0.778496
0.782005
0.785375
0.788452
0.791127
0.793339
0.795084
0.796399
0.797349
0.79801
0.798452
0.79873
0.798882
0.798928
0.798873
0.798704
0.798396
0.797914
0.797212
0.796293
0.795253
0.794287
0.793622
0.793454
0.794026
0.795603
0.797954
0.202216
0.208327
0.223641
0.245876
0.269983
0.293205
0.314609
0.334016
0.351519
0.367287
0.381512
0.394381
0.406073
0.416755
0.426564
0.435611
0.443993
0.451796
0.459098
0.465965
0.472456
0.478626
0.484527
0.490208
0.495718
0.501108
0.506435
0.511759
0.517154
0.522708
0.528528
0.534753
0.541567
0.549228
0.558141
0.569072
0.583869
0.607695
0.654451
0.742475
0.208324
0.2185
0.236135
0.257864
0.280395
0.302036
0.322137
0.340532
0.357262
0.372442
0.386217
0.39874
0.410168
0.420645
0.430286
0.439192
0.447452
0.455147
0.46235
0.469121
0.475517
0.481589
0.487384
0.492949
0.498329
0.503571
0.50873
0.513867
0.519056
0.524388
0.52998
0.535976
0.542569
0.550024
0.558751
0.569518
0.584176
0.607907
0.654667
0.742732
0.223637
0.236134
0.253655
0.273539
0.293831
0.313458
0.331927
0.349053
0.36481
0.379247
0.392452
0.404536
0.415624
0.425827
0.435239
0.443946
0.452031
0.459568
0.46662
0.473245
0.479492
0.485409
0.491037
0.496417
0.501591
0.506601
0.511501
0.516351
0.521232
0.526243
0.531512
0.537201
0.543514
0.550725
0.559245
0.569843
0.584363
0.607997
0.654744
0.742846
0.245874
0.257864
0.273539
0.29098
0.308869
0.326418
0.343198
0.358997
0.373727
0.387373
0.39997
0.411585
0.4223
0.432192
0.441336
0.449808
0.457682
0.465024
0.471889
0.47833
0.484391
0.490111
0.495525
0.500669
0.505575
0.510281
0.514837
0.519305
0.523772
0.528352
0.533195
0.538485
0.544447
0.551366
0.559655
0.570076
0.584462
0.608005
0.654739
0.74289
0.269984
0.280396
0.293831
0.308869
0.324519
0.340143
0.355347
0.369895
0.383655
0.396559
0.408587
0.419759
0.430106
0.439679
0.448539
0.456757
0.4644
0.471525
0.478182
0.484418
0.490269
0.495769
0.500942
0.505814
0.510409
0.514755
0.518894
0.522886
0.526825
0.530847
0.535134
0.539911
0.545434
0.552001
0.560028
0.570261
0.584518
0.607986
0.654732
0.742955
0.293206
0.302036
0.313458
0.326417
0.340143
0.354102
0.367933
0.381397
0.394331
0.406624
0.418198
0.428999
0.439017
0.448288
0.45687
0.464834
0.472239
0.47914
0.485584
0.49161
0.497249
0.502524
0.507451
0.512042
0.516307
0.520259
0.523922
0.527349
0.530636
0.533941
0.5375
0.54161
0.546573
0.55271
0.56043
0.57046
0.584593
0.608013
0.65482
0.74315
0.314609
0.322136
0.331926
0.343197
0.355347
0.367932
0.380641
0.393246
0.405577
0.417485
0.428797
0.439353
0.449114
0.458121
0.466449
0.474168
0.481344
0.488029
0.49427
0.500101
0.505545
0.510616
0.515321
0.519655
0.523607
0.527166
0.530327
0.533115
0.535611
0.537994
0.540575
0.543788
0.548018
0.553608
0.560956
0.570756
0.584768
0.608174
0.655118
0.743599
0.334016
0.340531
0.349052
0.358996
0.369895
0.381396
0.393245
0.40526
0.417295
0.429161
0.440548
0.451061
0.46067
0.469472
0.477576
0.485072
0.492037
0.498531
0.504597
0.510267
0.515559
0.520481
0.525025
0.52917
0.532882
0.536112
0.538806
0.540926
0.542494
0.543676
0.544872
0.546806
0.550011
0.554866
0.561735
0.571254
0.585136
0.608568
0.655752
0.744431
0.351518
0.35726
0.364809
0.373726
0.383654
0.394331
0.405577
0.417295
0.429421
0.441834
0.454068
0.464859
0.474442
0.483095
0.491007
0.49831
0.505099
0.511442
0.517387
0.522964
0.528189
0.533062
0.537569
0.541672
0.545312
0.548395
0.550793
0.552347
0.55291
0.552491
0.551527
0.551376
0.552964
0.556729
0.562929
0.572075