/*--------------------------------*- C++ -*----------------------------------*\
| =========                 |                                                 |
| \\      /  F ield         | OpenFOAM: The Open Source CFD Toolbox           |
|  \\    /   O peration     | Version:  2.1.0                                 |
|   \\  /    A nd           | Web:      www.OpenFOAM.org                      |
|    \\/     M anipulation  |                                                 |
\*---------------------------------------------------------------------------*/
FoamFile
{
    version     2.0;
    format      ascii;
    class       volScalarField;
    location    "32120";
    object      sw;
}
// * * * * * * * * * * * * * * * * * * * * * * * * * * * * * * * * * * * * * //

dimensions      [0 0 0 0 0 0 0];

internalField   nonuniform List<scalar> 
8000
(
0.726587
0.713788
0.697845
0.680768
0.663693
0.647187
0.631514
0.616776
0.602988
0.590117
0.578107
0.56691
0.55648
0.546762
0.537697
0.529224
0.521284
0.513823
0.506786
0.500117
0.493764
0.487679
0.481813
0.476119
0.470548
0.465047
0.459555
0.454
0.448294
0.442325
0.435941
0.428925
0.420952
0.411481
0.399531
0.383167
0.358402
0.31804
0.258216
0.210324
0.713789
0.702178
0.687688
0.67201
0.656145
0.64063
0.625745
0.611623
0.598308
0.585795
0.574059
0.563078
0.552819
0.543241
0.534293
0.525917
0.518061
0.510677
0.503708
0.497103
0.490814
0.484794
0.479
0.473387
0.467912
0.462522
0.457162
0.451761
0.446231
0.440455
0.434275
0.427468
0.419698
0.410416
0.398628
0.382374
0.357617
0.317106
0.257293
0.210042
0.697846
0.687688
0.674915
0.66089
0.646466
0.632146
0.61822
0.60485
0.592112
0.580036
0.568638
0.557927
0.547888
0.538494
0.529701
0.521462
0.513731
0.50646
0.499598
0.493097
0.486913
0.481005
0.475336
0.469866
0.464555
0.459359
0.454223
0.449077
0.44383
0.438358
0.432489
0.425985
0.418498
0.409466
0.397884
0.381775
0.357059
0.316442
0.256637
0.209842
0.680769
0.67201
0.66089
0.648477
0.635484
0.622372
0.609428
0.596831
0.584682
0.573056
0.562012
0.551586
0.541787
0.532598
0.523984
0.515906
0.508325
0.501193
0.494462
0.488091
0.482041
0.476277
0.470769
0.465485
0.460393
0.455457
0.450627
0.445836
0.440985
0.435937
0.4305
0.42441
0.417297
0.408584
0.397256
0.381323
0.35667
0.315967
0.256149
0.20969
0.663693
0.656145
0.646467
0.635484
0.62379
0.611789
0.599752
0.58786
0.576245
0.565027
0.554303
0.544142
0.534571
0.525583
0.517153
0.509249
0.501828
0.494845
0.488255
0.482023
0.476116
0.470507
0.465175
0.460099
0.455261
0.450634
0.446181
0.441839
0.437506
0.433026
0.428171
0.422633
0.416007
0.407696
0.396677
0.380949
0.356367
0.315571
0.255708
0.209544
0.647188
0.640631
0.632146
0.622372
0.611789
0.600742
0.589472
0.578163
0.566976
0.556067
0.545576
0.535613
0.526225
0.517415
0.50916
0.501423
0.494156
0.487314
0.480856
0.474751
0.468973
0.463506
0.458337
0.453462
0.44888
0.444585
0.44056
0.43676
0.433083
0.429351
0.425282
0.420486
0.414498
0.406696
0.39605
0.380553
0.356034
0.315109
0.255165
0.209356
0.631515
0.625746
0.61822
0.609428
0.599752
0.589473
0.578801
0.567918
0.556998
0.546225
0.535802
0.525915
0.516634
0.507957
0.499849
0.492253
0.485114
0.478384
0.472025
0.466008
0.460315
0.454938
0.449879
0.445152
0.44078
0.436791
0.433209
0.430025
0.427163
0.424428
0.421453
0.417686
0.412562
0.405423
0.395237
0.380001
0.355523
0.314404
0.254347
0.209074
0.616776
0.611623
0.60485
0.596831
0.58786
0.578163
0.567918
0.557278
0.546393
0.535458
0.524781
0.514763
0.505475
0.496869
0.488855
0.481349
0.474284
0.467607
0.461278
0.455269
0.449568
0.444174
0.439104
0.434393
0.430098
0.426298
0.423084
0.420538
0.418665
0.417296
0.415952
0.413723
0.409855
0.403633
0.394047
0.379121
0.354652
0.313247
0.253064
0.208649
0.602989
0.598309
0.592113
0.584682
0.576246
0.566976
0.556998
0.546393
0.535213
0.523556
0.511854
0.501362
0.491917
0.483278
0.475268
0.467762
0.460669
0.453926
0.447486
0.441321
0.435418
0.429781
0.424439
0.419446
0.414901
0.410951
0.407805
0.405731
0.40498
0.405595
0.407028
0.407506
0.405749
0.400954
0.392226
0.377705
0.353218
0.31142
0.251138
0.208047
0.590118
0.585796
0.580036
0.573056
0.565027
0.556067
0.546225
0.535458
0.523556
0.509995
0.494152
0.482682
0.472869
0.464019
0.455817
0.448079
0.440685
0.433549
0.426608
0.419819
0.413151
0.406599
0.400185
0.393976
0.388103
0.382804
0.378482
0.375808
0.375817
0.379755
0.387903
0.395788
0.398902
0.396807
0.389474
0.375541
0.351024
0.30872
0.248432
0.207261
0.578108
0.57406
0.568638
0.562012
0.554304
0.545576
0.535802
0.524782
0.511854
0.494152
0.237573
0.229372
0.232514
0.234088
0.234584
0.23439
0.23372
0.232716
0.231477
0.230088
0.228618
0.227137
0.225721
0.224456
0.223458
0.222911
0.223154
0.224943
0.230435
0.247008
0.382578
0.38984
0.393316
0.392354
0.386027
0.372599
0.347957
0.305012
0.244895
0.206324
0.566911
0.563078
0.557927
0.551587
0.544142
0.535613
0.525915
0.514763
0.501362
0.482682
0.229372
0.202299
0.201583
0.201797
0.201921
0.20196
0.201939
0.201875
0.201782
0.201673
0.201556
0.201441
0.201335
0.201248
0.201188
0.201168
0.20122
0.201407
0.201916
0.203272
0.376828
0.384711
0.388281
0.387833
0.382105
0.368958
0.343998
0.300234
0.240585
0.2053
0.556481
0.55282
0.547889
0.541788
0.534571
0.526226
0.516634
0.505476
0.491917
0.472869
0.232515
0.201583
0.200089
0.200057
0.200064
0.200068
0.200067
0.200066
0.200063
0.200059
0.200055
0.20005
0.200046
0.200042
0.200041
0.20004
0.200042
0.20005
0.200069
0.200108
0.370979
0.37971
0.383407
0.383234
0.37782
0.364704
0.339171
0.294397
0.235674
0.204271
0.546762
0.543242
0.538495
0.532598
0.525583
0.517415
0.507957
0.496869
0.483278
0.464019
0.234088
0.201797
0.200057
0.200002
0.200002
0.200002
0.200002
0.200002
0.200002
0.200002
0.200002
0.200001
0.200001
0.200001
0.200001
0.200001
0.200001
0.200001
0.200001
0.200003
0.365024
0.374653
0.378523
0.378518
0.373216
0.359892
0.333509
0.287556
0.230416
0.203312
0.537697
0.534293
0.529702
0.523984
0.517153
0.50916
0.49985
0.488855
0.475269
0.455817
0.234584
0.201921
0.200064
0.200002
0.2
0.2
0.2
0.2
0.2
0.2
0.2
0.2
0.2
0.2
0.2
0.2
0.2
0.2
0.2
0.2
0.358958
0.369476
0.373546
0.373644
0.368299
0.354542
0.327023
0.279813
0.225116
0.20248
0.529224
0.525918
0.521462
0.515906
0.509249
0.501423
0.492254
0.48135
0.467762
0.448079
0.23439
0.20196
0.200068
0.200002
0.2
0.2
0.2
0.2
0.2
0.2
0.2
0.2
0.2
0.2
0.2
0.2
0.2
0.2
0.2
0.2
0.352762
0.36414
0.368423
0.368571
0.363047
0.348639
0.319715
0.271331
0.220081
0.201799
0.521284
0.518062
0.513731
0.508325
0.501829
0.494157
0.485114
0.474285
0.460669
0.440685
0.23372
0.201939
0.200067
0.200002
0.2
0.2
0.2
0.2
0.2
0.2
0.2
0.2
0.2
0.2
0.2
0.2
0.2
0.2
0.2
0.2
0.346404
0.358607
0.363105
0.363248
0.357414
0.342141
0.311585
0.262362
0.215567
0.201271
0.513824
0.510677
0.50646
0.501193
0.494845
0.487314
0.478384
0.467608
0.453926
0.433549
0.232716
0.201875
0.200066
0.200002
0.2
0.2
0.2
0.2
0.2
0.2
0.2
0.2
0.2
0.2
0.2
0.2
0.2
0.2
0.2
0.2
0.339831
0.352827
0.357533
0.357609
0.351333
0.334985
0.302674
0.253256
0.211737
0.20088
0.506787
0.503708
0.499598
0.494463
0.488256
0.480857
0.472025
0.461278
0.447486
0.426609
0.231477
0.201782
0.200063
0.200002
0.2
0.2
0.2
0.2
0.2
0.2
0.2
0.2
0.2
0.2
0.2
0.2
0.2
0.2
0.2
0.2
0.332967
0.346727
0.351628
0.351571
0.344719
0.327103
0.293114
0.244439
0.208654
0.2006
0.500118
0.497104
0.493097
0.488092
0.482024
0.474751
0.466008
0.45527
0.441322
0.419819
0.230088
0.201673
0.200059
0.200002
0.2
0.2
0.2
0.2
0.2
0.2
0.2
0.2
0.2
0.2
0.2
0.2
0.2
0.2
0.2
0.2
0.325713
0.340212
0.345289
0.345028
0.337473
0.318449
0.28318
0.236322
0.206286
0.200407
0.493765
0.490814
0.486913
0.482042
0.476116
0.468974
0.460315
0.449568
0.435418
0.413152
0.228618
0.201555
0.200055
0.200002
0.2
0.2
0.2
0.2
0.2
0.2
0.2
0.2
0.2
0.2
0.2
0.2
0.2
0.2
0.2
0.2
0.317947
0.333157
0.338391
0.337858
0.329495
0.309051
0.273159
0.229216
0.204542
0.200277
0.487679
0.484794
0.481006
0.476278
0.470508
0.463506
0.454938
0.444174
0.429782
0.4066
0.227137
0.201441
0.20005
0.200001
0.2
0.2
0.2
0.2
0.2
0.2
0.2
0.2
0.2
0.2
0.2
0.2
0.2
0.2
0.2
0.2
0.309533
0.325412
0.330783
0.329926
0.320715
0.299071
0.263436
0.223276
0.2033
0.200191
0.481813
0.479
0.475336
0.470769
0.465175
0.458337
0.449879
0.439104
0.424439
0.400186
0.225721
0.201335
0.200046
0.200001
0.2
0.2
0.2
0.2
0.2
0.2
0.2
0.2
0.2
0.2
0.2
0.2
0.2
0.2
0.2
0.2
0.300351
0.316811
0.322305
0.321118
0.311145
0.288873
0.254456
0.21851
0.20244
0.200135
0.47612
0.473388
0.469866
0.465485
0.4601
0.453463
0.445152
0.434393
0.419447
0.393976
0.224456
0.201248
0.200042
0.200001
0.2
0.2
0.2
0.2
0.2
0.2
0.2
0.2
0.2
0.2
0.2
0.2
0.2
0.2
0.2
0.2
0.290359
0.307216
0.312826
0.311383
0.300946
0.279013
0.246578
0.21483
0.201862
0.2001
0.470549
0.467912
0.464555
0.460394
0.455261
0.44888
0.44078
0.430099
0.414901
0.388104
0.223458
0.201188
0.200041
0.200001
0.2
0.2
0.2
0.2
0.2
0.2
0.2
0.2
0.2
0.2
0.2
0.2
0.2
0.2
0.2
0.2
0.279689
0.296588
0.302315
0.30082
0.2905
0.269889
0.23998
0.212104
0.201487
0.200079
0.465047
0.462523
0.459359
0.455458
0.450635
0.444585
0.436792
0.426298
0.410951
0.382804
0.222911
0.201168
0.20004
0.200001
0.2
0.2
0.2
0.2
0.2
0.2
0.2
0.2
0.2
0.2
0.2
0.2
0.2
0.2
0.2
0.2
0.268738
0.285108
0.290954
0.289761
0.28039
0.261712
0.234664
0.210186
0.20126
0.200067
0.459555
0.457163
0.454223
0.450628
0.446182
0.440561
0.433209
0.423085
0.407806
0.378482
0.223154
0.20122
0.200042
0.200001
0.2
0.2
0.2
0.2
0.2
0.2
0.2
0.2
0.2
0.2
0.2
0.2
0.2
0.2
0.2
0.2
0.257889
0.273235
0.27921
0.278781
0.271024
0.254579
0.230509
0.208931
0.201144
0.200063
0.454
0.451762
0.449078
0.445836
0.44184
0.43676
0.430025
0.420538
0.405731
0.375808
0.224943
0.201407
0.20005
0.200001
0.2
0.2
0.2
0.2
0.2
0.2
0.2
0.2
0.2
0.2
0.2
0.2
0.2
0.2
0.2
0.2
0.247253
0.261169
0.267481
0.268191
0.262333
0.248409
0.227318
0.208195
0.201117
0.200065
0.448295
0.446231
0.443831
0.440985
0.437507
0.433083
0.427163
0.418665
0.404981
0.375817
0.230435
0.201916
0.200069
0.200001
0.2
0.2
0.2
0.2
0.2
0.2
0.2
0.2
0.2
0.2
0.2
0.2
0.2
0.2
0.2
0.2
0.236799
0.248796
0.255601
0.257774
0.254097
0.242935
0.224822
0.207832
0.20116
0.200074
0.442326
0.440455
0.438358
0.435937
0.433026
0.429352
0.424429
0.417296
0.405595
0.379755
0.247009
0.203272
0.200108
0.200003
0.2
0.2
0.2
0.2
0.2
0.2
0.2
0.2
0.2
0.2
0.2
0.2
0.2
0.2
0.2
0.2
0.226052
0.235757
0.243203
0.24713
0.245897
0.237705
0.222644
0.207659
0.201252
0.200088
0.435941
0.434275
0.432489
0.4305
0.428171
0.425282
0.421453
0.415952
0.407028
0.387903
0.382579
0.376829
0.37098
0.365024
0.358958
0.352762
0.346405
0.339831
0.332967
0.325714
0.317947
0.309533
0.300351
0.290359
0.279689
0.268738
0.25789
0.247253
0.236799
0.226052
0.218925
0.223074
0.230273
0.235857
0.237177
0.232109
0.22027
0.207412
0.201341
0.200107
0.428926
0.427468
0.425986
0.424411
0.422634
0.420486
0.417686
0.413723
0.407506
0.395788
0.38984
0.384711
0.37971
0.374654
0.369476
0.36414
0.358608
0.352827
0.346727
0.340212
0.333158
0.325412
0.316812
0.307216
0.296588
0.285108
0.273235
0.261169
0.248796
0.235757
0.223074
0.218
0.220216
0.224982
0.227879
0.225651
0.217116
0.206714
0.201389
0.20013
0.420952
0.419698
0.418499
0.417297
0.416007
0.414498
0.412563
0.409855
0.405749
0.398902
0.393317
0.388282
0.383407
0.378523
0.373546
0.368423
0.363106
0.357533
0.351628
0.34529
0.338391
0.330783
0.322306
0.312826
0.302316
0.290954
0.279211
0.267481
0.255601
0.243203
0.230273
0.220216
0.216034
0.216883
0.219065
0.218463
0.212843
0.205584
0.201375
0.200155
0.411481
0.410416
0.409466
0.408584
0.407696
0.406696
0.405423
0.403633
0.400954
0.396808
0.392355
0.387833
0.383234
0.378518
0.373644
0.368571
0.363248
0.357609
0.351571
0.345028
0.337858
0.329926
0.321118
0.311383
0.30082
0.289761
0.278781
0.268191
0.257774
0.24713
0.235857
0.224981
0.216883
0.21308
0.212402
0.211923
0.208909
0.2044
0.201296
0.200178
0.399532
0.398628
0.397885
0.397257
0.396678
0.39605
0.395237
0.394047
0.392226
0.389474
0.386027
0.382105
0.37782
0.373216
0.368299
0.363047
0.357414
0.351333
0.344719
0.337473
0.329495
0.320716
0.311145
0.300946
0.2905
0.28039
0.271024
0.262333
0.254097
0.245897
0.237177
0.227879
0.219065
0.212402
0.209068
0.207668
0.205897
0.203301
0.201165
0.200198
0.383167
0.382374
0.381775
0.381324
0.380949
0.380553
0.380002
0.379121
0.377705
0.375541
0.372599
0.368959
0.364704
0.359893
0.354542
0.348639
0.342141
0.334985
0.327103
0.31845
0.309051
0.299071
0.288873
0.279013
0.269889
0.261712
0.254579
0.248409
0.242935
0.237705
0.232109
0.225651
0.218463
0.211923
0.207668
0.205441
0.203976
0.202424
0.201012
0.200213
0.358403
0.357617
0.357059
0.35667
0.356367
0.356034
0.355523
0.354653
0.353218
0.351025
0.347958
0.343998
0.339172
0.333509
0.327023
0.319715
0.311585
0.302674
0.293114
0.28318
0.273159
0.263437
0.254457
0.246579
0.23998
0.234664
0.230509
0.227318
0.224822
0.222644
0.22027
0.217116
0.212843
0.208909
0.205897
0.203976
0.202771
0.201774
0.200856
0.200223
0.31804
0.317106
0.316442
0.315967
0.315571
0.315109
0.314404
0.313247
0.31142
0.30872
0.305012
0.300234
0.294397
0.287556
0.279813
0.271331
0.262361
0.253256
0.244439
0.236322
0.229216
0.223276
0.21851
0.21483
0.212104
0.210186
0.208931
0.208195
0.207832
0.207659
0.207412
0.206714
0.205584
0.2044
0.203301
0.202424
0.201774
0.201224
0.200681
0.200221
0.258216
0.257293
0.256637
0.256149
0.255708
0.255165
0.254347
0.253064
0.251138
0.248432
0.244895
0.240585
0.235674
0.230416
0.225116
0.220081
0.215566
0.211737
0.208654
0.206286
0.204542
0.2033
0.20244
0.201862
0.201487
0.20126
0.201144
0.201117
0.20116
0.201252
0.201341
0.201389
0.201375
0.201296
0.201165
0.201012
0.200856
0.200681
0.200454
0.200187
0.210324
0.210042
0.209842
0.20969
0.209543
0.209356
0.209074
0.208649
0.208047
0.207261
0.206324
0.2053
0.204271
0.203312
0.20248
0.201799
0.201271
0.20088
0.2006
0.200407
0.200277
0.200191
0.200135
0.2001
0.200079
0.200067
0.200063
0.200065
0.200074
0.200088
0.200107
0.20013
0.200155
0.200178
0.200198
0.200213
0.200223
0.200221
0.200187
0.200105
0.777608
0.764407
0.745536
0.724251
0.702897
0.682587
0.663724
0.646395
0.630549
0.616083
0.602873
0.590781
0.579673
0.569439
0.559984
0.551219
0.543062
0.535432
0.528269
0.52151
0.515102
0.50899
0.503126
0.497462
0.491948
0.486532
0.481158
0.475759
0.470258
0.464558
0.458536
0.452028
0.444812
0.436567
0.426817
0.414775
0.398746
0.373346
0.32238
0.23905
0.76441
0.750976
0.733116
0.713459
0.693718
0.674767
0.656983
0.640488
0.625283
0.611309
0.598473
0.586664
0.575775
0.565716
0.556405
0.547762
0.539708
0.532171
0.525092
0.518415
0.512086
0.506057
0.500283
0.494719
0.489318
0.484034
0.478812
0.473587
0.468279
0.46279
0.456988
0.450703
0.443703
0.43566
0.426089
0.414199
0.398296
0.372986
0.321973
0.238702
0.745537
0.733116
0.717166
0.699678
0.681934
0.664653
0.6482
0.632745
0.618341
0.60498
0.592611
0.581158
0.570553
0.560729
0.551616
0.543144
0.535239
0.527839
0.520889
0.514338
0.508137
0.502243
0.496616
0.491216
0.486003
0.480934
0.475956
0.471004
0.465996
0.460822
0.455339
0.449362
0.442645
0.434849
0.425484
0.413755
0.397979
0.372765
0.321741
0.238495
0.724252
0.713459
0.699678
0.684419
0.668689
0.653106
0.638027
0.623656
0.610093
0.597376
0.585495
0.574425
0.564133
0.554574
0.545692
0.537421
0.529696
0.522465
0.515676
0.509283
0.503244
0.497522
0.492084
0.486898
0.481932
0.477148
0.472497
0.467916
0.463315
0.458571
0.453519
0.447948
0.441592
0.434099
0.424969
0.413413
0.39776
0.372639
0.321614
0.238361
0.702897
0.693719
0.681935
0.66869
0.65479
0.640771
0.626974
0.613621
0.600843
0.588716
0.577284
0.566576
0.556593
0.547305
0.538664
0.530605
0.523078
0.516032
0.509421
0.503202
0.497342
0.491812
0.486586
0.481644
0.476964
0.472519
0.46827
0.464155
0.460079
0.455897
0.451413
0.446372
0.440475
0.43335
0.424494
0.413123
0.39759
0.372548
0.321499
0.238215
0.682588
0.674768
0.664653
0.653106
0.640771
0.628103
0.61542
0.602938
0.590808
0.579147
0.568068
0.557657
0.547944
0.538908
0.530494
0.522648
0.515321
0.508461
0.502026
0.495981
0.490298
0.484956
0.479943
0.47525
0.470871
0.466796
0.463005
0.459447
0.456025
0.452573
0.44884
0.444495
0.439187
0.432519
0.423986
0.412819
0.397402
0.372412
0.321281
0.237955
0.663725
0.656984
0.648201
0.638028
0.626975
0.61542
0.603638
0.591824
0.580135
0.568744
0.557845
0.547612
0.538096
0.529262
0.52105
0.513402
0.506259
0.49957
0.493294
0.487401
0.48187
0.476689
0.471857
0.467382
0.463281
0.459571
0.456263
0.453337
0.450715
0.448211
0.445495
0.442093
0.437563
0.431478
0.42334
0.412408
0.397107
0.372136
0.320827
0.237462
0.646395
0.640489
0.632745
0.623656
0.613621
0.602938
0.591824
0.580433
0.568919
0.557484
0.546442
0.536184
0.526749
0.518054
0.510009
0.502528
0.495541
0.48899
0.482836
0.477049
0.471615
0.466531
0.461807
0.45747
0.453563
0.450144
0.447278
0.445014
0.443339
0.442085
0.440825
0.438777
0.43534
0.430043
0.422415
0.411771
0.396602
0.371613
0.319989
0.236617
0.630549
0.625284
0.618341
0.610093
0.600843
0.590808
0.580135
0.568919
0.55723
0.545184
0.533229
0.522612
0.513116
0.504498
0.496574
0.489216
0.482335
0.475866
0.469763
0.463998
0.458559
0.453447
0.448685
0.444314
0.440407
0.437071
0.434455
0.432742
0.432102
0.432537
0.433585
0.433771
0.43207
0.427944
0.421028
0.410772
0.395773
0.370729
0.318618
0.235313
0.616084
0.611309
0.60498
0.597376
0.588716
0.579147
0.568744
0.557484
0.545184
0.53135
0.515425
0.50403
0.494382
0.485785
0.477922
0.470608
0.463729
0.457206
0.450985
0.445031
0.439327
0.433874
0.428695
0.423842
0.419408
0.415549
0.41252
0.410734
0.410841
0.413667
0.419478
0.425029
0.426917
0.424817
0.418987
0.409284
0.394526
0.369389
0.316581
0.233478
0.602874
0.598474
0.592611
0.585495
0.577284
0.568068
0.557845
0.546442
0.53323
0.515426
0.246486
0.23806
0.242829
0.245725
0.247311
0.248063
0.248242
0.248009
0.247483
0.24676
0.245923
0.245059
0.244263
0.243657
0.243407
0.243785
0.245298
0.249103
0.258546
0.284483
0.414783
0.42044
0.422699
0.421483
0.416469
0.407311
0.392824
0.367534
0.313781
0.231099
0.590782
0.586665
0.581159
0.574425
0.566576
0.557657
0.547612
0.536184
0.522612
0.50403
0.23806
0.203702
0.202657
0.20312
0.20346
0.203671
0.203784
0.203821
0.203803
0.203746
0.203667
0.20358
0.203503
0.203453
0.203458
0.203558
0.203836
0.204477
0.206002
0.209887
0.409565
0.416472
0.418919
0.41813
0.413652
0.404938
0.390704
0.365158
0.31016
0.228226
0.579674
0.575776
0.570554
0.564133
0.556593
0.547945
0.538096
0.526749
0.513117
0.494382
0.242829
0.202657
0.200175
0.200118
0.200138
0.200153
0.200163
0.200168
0.200169
0.200167
0.200165
0.200161
0.200157
0.200154
0.200155
0.200161
0.200176
0.200209
0.200283
0.200431
0.404542
0.412692
0.415317
0.414771
0.410641
0.402263
0.388234
0.362293
0.305693
0.224975
0.56944
0.565717
0.560729
0.554575
0.547306
0.538908
0.529262
0.518054
0.504498
0.485786
0.245725
0.20312
0.200118
0.200007
0.200004
0.200005
0.200006
0.200006
0.200006
0.200006
0.200005
0.200005
0.200005
0.200005
0.200005
0.200006
0.200006
0.200007
0.200009
0.200012
0.399663
0.408981
0.411783
0.411395
0.407495
0.399368
0.385493
0.358977
0.300371
0.221504
0.559984
0.556406
0.551616
0.545692
0.538664
0.530494
0.52105
0.510009
0.496574
0.477922
0.247311
0.20346
0.200138
0.200004
0.2
0.2
0.2
0.2
0.2
0.2
0.2
0.2
0.2
0.2
0.2
0.2
0.2
0.2
0.2
0.2
0.394898
0.405298
0.408268
0.407992
0.404252
0.396322
0.382554
0.355243
0.294185
0.217995
0.551219
0.547762
0.543144
0.537421
0.530606
0.522649
0.513402
0.502529
0.489217
0.470609
0.248063
0.203671
0.200153
0.200005
0.2
0.2
0.2
0.2
0.2
0.2
0.2
0.2
0.2
0.2
0.2
0.2
0.2
0.2
0.2
0.2
0.390231
0.401621
0.404749
0.404557
0.400938
0.39318
0.379476
0.351108
0.287139
0.214625
0.543062
0.539709
0.535239
0.529696
0.523079
0.515321
0.506259
0.495541
0.482335
0.46373
0.248242
0.203784
0.200163
0.200006
0.2
0.2
0.2
0.2
0.2
0.2
0.2
0.2
0.2
0.2
0.2
0.2
0.2
0.2
0.2
0.2
0.385645
0.397937
0.401208
0.401087
0.397576
0.38999
0.376301
0.346563
0.279272
0.211548
0.535433
0.532171
0.527839
0.522465
0.516033
0.508461
0.49957
0.48899
0.475866
0.457207
0.248009
0.203821
0.200168
0.200006
0.2
0.2
0.2
0.2
0.2
0.2
0.2
0.2
0.2
0.2
0.2
0.2
0.2
0.2
0.2
0.2
0.381124
0.394234
0.397638
0.397584
0.39419
0.386798
0.373044
0.341573
0.270702
0.208874
0.528269
0.525092
0.520889
0.515677
0.509421
0.502027
0.493295
0.482836
0.469763
0.450985
0.247483
0.203803
0.200169
0.200006
0.2
0.2
0.2
0.2
0.2
0.2
0.2
0.2
0.2
0.2
0.2
0.2
0.2
0.2
0.2
0.2
0.376656
0.390502
0.394034
0.394057
0.390809
0.38365
0.369676
0.336075
0.261678
0.206661
0.521511
0.518415
0.514338
0.509284
0.503203
0.495982
0.487402
0.47705
0.463999
0.445031
0.246759
0.203746
0.200167
0.200006
0.2
0.2
0.2
0.2
0.2
0.2
0.2
0.2
0.2
0.2
0.2
0.2
0.2
0.2
0.2
0.2
0.372232
0.386737
0.390401
0.390524
0.387472
0.380585
0.366108
0.329984
0.252593
0.204916
0.515102
0.512087
0.508138
0.503245
0.497343
0.490298
0.48187
0.471616
0.458559
0.439328
0.245923
0.203667
0.200165
0.200005
0.2
0.2
0.2
0.2
0.2
0.2
0.2
0.2
0.2
0.2
0.2
0.2
0.2
0.2
0.2
0.2
0.367853
0.382939
0.386753
0.387016
0.384225
0.377632
0.362326
0.323225
0.243938
0.203601
0.508991
0.506058
0.502244
0.497523
0.491812
0.484957
0.476689
0.466531
0.453448
0.433875
0.245059
0.20358
0.200161
0.200005
0.2
0.2
0.2
0.2
0.2
0.2
0.2
0.2
0.2
0.2
0.2
0.2
0.2
0.2
0.2
0.2
0.363532
0.379122
0.383117
0.383576
0.38112
0.374786
0.358337
0.315769
0.236184
0.202651
0.503127
0.500284
0.496617
0.492085
0.486587
0.479943
0.471857
0.461807
0.448685
0.428696
0.244263
0.203503
0.200157
0.200005
0.2
0.2
0.2
0.2
0.2
0.2
0.2
0.2
0.2
0.2
0.2
0.2
0.2
0.2
0.2
0.2
0.359285
0.375305
0.37953
0.380256
0.378198
0.371977
0.354134
0.307707
0.22966
0.20199
0.497463
0.494719
0.491217
0.486899
0.481645
0.47525
0.467383
0.457471
0.444315
0.423843
0.243657
0.203453
0.200154
0.200005
0.2
0.2
0.2
0.2
0.2
0.2
0.2
0.2
0.2
0.2
0.2
0.2
0.2
0.2
0.2
0.2
0.355115
0.371494
0.376028
0.377096
0.375455
0.369017
0.34972
0.299323
0.224506
0.201548
0.491948
0.489319
0.486004
0.481933
0.476965
0.470871
0.463281
0.453564
0.440408
0.419408
0.243407
0.203458
0.200155
0.200005
0.2
0.2
0.2
0.2
0.2
0.2
0.2
0.2
0.2
0.2
0.2
0.2
0.2
0.2
0.2
0.2
0.350954
0.367647
0.3726
0.374084
0.372798
0.36584
0.345142
0.291131
0.22071
0.20127
0.486532
0.484035
0.480935
0.477148
0.47252
0.466797
0.459572
0.450145
0.437072
0.415549
0.243785
0.203558
0.200161
0.200006
0.2
0.2
0.2
0.2
0.2
0.2
0.2
0.2
0.2
0.2
0.2
0.2
0.2
0.2
0.2
0.2
0.346566
0.363569
0.369102
0.371066
0.369945
0.362481
0.340512
0.283815
0.21818
0.201118
0.481158
0.478813
0.475957
0.472498
0.468271
0.463006
0.456263
0.447278
0.434455
0.41252
0.245298
0.203836
0.200176
0.200006
0.2
0.2
0.2
0.2
0.2
0.2
0.2
0.2
0.2
0.2
0.2
0.2
0.2
0.2
0.2
0.2
0.341607
0.35877
0.365101
0.367604
0.366608
0.358952
0.33601
0.278039
0.216808
0.201072
0.475759
0.473587
0.471005
0.467917
0.464156
0.459448
0.453338
0.445015
0.432742
0.410735
0.249103
0.204477
0.200209
0.200007
0.2
0.2
0.2
0.2
0.2
0.2
0.2
0.2
0.2
0.2
0.2
0.2
0.2
0.2
0.2
0.2
0.335707
0.352638
0.359913
0.363193
0.362667
0.355229
0.331858
0.274249
0.216509
0.201127
0.470258
0.46828
0.465996
0.463316
0.460079
0.456026
0.450716
0.443339
0.432102
0.410841
0.258546
0.206002
0.200283
0.200009
0.2
0.2
0.2
0.2
0.2
0.2
0.2
0.2
0.2
0.2
0.2
0.2
0.2
0.2
0.2
0.2
0.327977
0.344229
0.352787
0.357345
0.357831
0.351187
0.328214
0.27255
0.217234
0.201296
0.464558
0.46279
0.460822
0.458571
0.455898
0.452574
0.448212
0.442085
0.432538
0.413667
0.284482
0.209887
0.200431
0.200012
0.2
0.2
0.2
0.2
0.2
0.2
0.2
0.2
0.2
0.2
0.2
0.2
0.2
0.2
0.2
0.2
0.31581
0.331208
0.342026
0.348946
0.351407
0.346438
0.324995
0.272667
0.218933
0.201604
0.458536
0.456988
0.455339
0.453519
0.451414
0.44884
0.445496
0.440825
0.433586
0.419478
0.414783
0.409565
0.404542
0.399663
0.394898
0.390231
0.385645
0.381124
0.376656
0.372231
0.367853
0.363532
0.359285
0.355115
0.350954
0.346566
0.341607
0.335707
0.327977
0.31581
0.304518
0.312334
0.325215
0.335965
0.341976
0.340096
0.321698
0.273904
0.221438
0.202086
0.452029
0.450704
0.449362
0.447949
0.446373
0.444496
0.442093
0.438778
0.433772
0.425029
0.42044
0.416472
0.412692
0.408981
0.405298
0.401621
0.397938
0.394234
0.390503
0.386737
0.382939
0.379123
0.375305
0.371495
0.367647
0.363569
0.35877
0.352638
0.344229
0.331208
0.312334
0.303345
0.308138
0.319005
0.328485
0.330899
0.317264
0.275491
0.224601
0.202788
0.444812
0.443704
0.442645
0.441593
0.440476
0.439187
0.437563
0.43534
0.43207
0.426917
0.4227
0.41892
0.415317
0.411783
0.408269
0.404749
0.401208
0.397638
0.394035
0.390401
0.386753
0.383117
0.37953
0.376028
0.3726
0.369102
0.365101
0.359913
0.352787
0.342026
0.325215
0.308138
0.300049
0.30339
0.312285
0.318208
0.310323
0.275736
0.227821
0.203707
0.436568
0.435661
0.43485
0.434099
0.433351
0.43252
0.431479
0.430043
0.427944
0.424817
0.421484
0.41813
0.414771
0.411395
0.407992
0.404557
0.401087
0.397584
0.394057
0.390524
0.387016
0.383576
0.380256
0.377096
0.374084
0.371066
0.367604
0.363193
0.357345
0.348946
0.335965
0.319004
0.30339
0.295788
0.297846
0.303152
0.299562
0.272831
0.230086
0.204747
0.426818
0.42609
0.425484
0.42497
0.424495
0.423987
0.423341
0.422415
0.421028
0.418987
0.416469
0.413652
0.410641
0.407495
0.404253
0.400939
0.397576
0.39419
0.390809
0.387472
0.384225
0.38112
0.378198
0.375455
0.372798
0.369945
0.366608
0.362667
0.357831
0.351407
0.341976
0.328484
0.312285
0.297846
0.29005
0.289131
0.28606
0.266136
0.230437
0.205713
0.414776
0.4142
0.413756
0.413413
0.413124
0.41282
0.412408
0.411771
0.410772
0.409284
0.407311
0.404938
0.402263
0.399368
0.396322
0.39318
0.38999
0.386798
0.38365
0.380585
0.377632
0.374786
0.371977
0.369017
0.36584
0.362481
0.358952
0.355229
0.351187
0.346438
0.340096
0.330899
0.318208
0.303152
0.289131
0.279884
0.272809
0.256732
0.228565
0.206378
0.398746
0.398296
0.397979
0.39776
0.39759
0.397402
0.397107
0.396602
0.395773
0.394526
0.392824
0.390704
0.388234
0.385493
0.382554
0.379476
0.376301
0.373044
0.369676
0.366108
0.362326
0.358337
0.354134
0.34972
0.345142
0.340512
0.33601
0.331858
0.328214
0.324995
0.321698
0.317264
0.310323
0.299563
0.28606
0.272809
0.261225
0.246378
0.224859
0.206546
0.373347
0.372986
0.372765
0.37264
0.372548
0.372412
0.372137
0.371613
0.370729
0.369389
0.367534
0.365158
0.362293
0.358977
0.355243
0.351108
0.346563
0.341573
0.336075
0.329984
0.323225
0.31577
0.307707
0.299323
0.291131
0.283815
0.278039
0.274249
0.27255
0.272667
0.273905
0.275491
0.275736
0.272832
0.266137
0.256732
0.246378
0.234365
0.219379
0.205974
0.32238
0.321974
0.321742
0.321614
0.321499
0.321282
0.320827
0.319989
0.318618
0.316581
0.313781
0.31016
0.305693
0.300371
0.294185
0.287139
0.279272
0.270702
0.261678
0.252593
0.243938
0.236184
0.22966
0.224506
0.22071
0.21818
0.216808
0.216509
0.217234
0.218933
0.221438
0.224602
0.227821
0.230087
0.230438
0.228565
0.224859
0.21938
0.211955
0.204397
0.23905
0.238702
0.238495
0.238361
0.238215
0.237955
0.237462
0.236617
0.235313
0.233478
0.231099
0.228226
0.224975
0.221504
0.217995
0.214625
0.211548
0.208873
0.206661
0.204916
0.203601
0.202651
0.20199
0.201548
0.20127
0.201118
0.201072
0.201127
0.201296
0.201604
0.202086
0.202788
0.203707
0.204747
0.205713
0.206378
0.206546
0.205974
0.204397
0.202046
0.797784
0.791673
0.776359
0.754124
0.730017
0.706795
0.685391
0.665984
0.648481
0.632713
0.618488
0.605619
0.593927
0.583245
0.573436
0.564389
0.556007
0.548204
0.540902
0.534035
0.527544
0.521374
0.515473
0.509792
0.504282
0.498892
0.493565
0.488241
0.482846
0.477292
0.471472
0.465247
0.458433
0.450772
0.441859
0.430928
0.416131
0.392305
0.345549
0.257525
0.791676
0.7815
0.763865
0.742136
0.719605
0.697964
0.677863
0.659468
0.642738
0.627558
0.613783
0.60126
0.589832
0.579355
0.569714
0.560808
0.552548
0.544853
0.53765
0.530879
0.524483
0.518411
0.512616
0.507051
0.501671
0.496429
0.49127
0.486133
0.480944
0.475612
0.47002
0.464024
0.457431
0.449976
0.441249
0.430482
0.415824
0.392093
0.345333
0.257268
0.776363
0.763866
0.746345
0.726461
0.706169
0.686542
0.668073
0.650947
0.63519
0.620753
0.607548
0.595464
0.584376
0.574173
0.564761
0.556054
0.547969
0.540432
0.53338
0.526755
0.520508
0.514591
0.508963
0.503583
0.498409
0.493399
0.488499
0.483649
0.478768
0.473757
0.468488
0.462799
0.456486
0.449275
0.440755
0.430157
0.415637
0.392003
0.345256
0.257154
0.754126
0.742136
0.726461
0.70902
0.691131
0.673582
0.656802
0.641003
0.626273
0.612627
0.60003
0.588415
0.5777
0.567808
0.558664
0.550192
0.542318
0.534976
0.528111
0.52167
0.515609
0.509889
0.504475
0.499331
0.494425
0.489719
0.485163
0.480695
0.476228
0.471648
0.466805
0.461515
0.455553
0.448634
0.440345
0.429924
0.415538
0.391995
0.345261
0.25711
0.730016
0.719604
0.706169
0.691131
0.675481
0.659857
0.644653
0.630105
0.616345
0.603441
0.591413
0.580241
0.569894
0.560321
0.551461
0.543243
0.5356
0.528475
0.521818
0.515582
0.509731
0.504231
0.499058
0.494186
0.489591
0.485245
0.481106
0.477114
0.473175
0.469153
0.464866
0.460089
0.454566
0.447999
0.439972
0.429739
0.415482
0.392014
0.345268
0.257045
0.706794
0.697964
0.686542
0.673583
0.659857
0.645898
0.632067
0.618603
0.605669
0.593376
0.581802
0.571001
0.560983
0.551712
0.54313
0.535166
0.527761
0.52086
0.514416
0.50839
0.502751
0.497476
0.492549
0.487958
0.483693
0.479741
0.476078
0.472651
0.469364
0.466059
0.4625
0.45839
0.453427
0.44729
0.43957
0.42954
0.415407
0.391987
0.34518
0.25685
0.685391
0.677864
0.668074
0.656803
0.644653
0.632068
0.619359
0.606754
0.594423
0.582515
0.571203
0.560647
0.550886
0.541879
0.533551
0.525832
0.518656
0.511971
0.50573
0.499899
0.494455
0.489384
0.484679
0.480345
0.476393
0.472834
0.469673
0.466885
0.464389
0.462006
0.459425
0.456212
0.451982
0.446392
0.439044
0.429244
0.415232
0.391826
0.344882
0.256401
0.665984
0.659469
0.650948
0.641004
0.630105
0.618604
0.606755
0.59474
0.582705
0.570839
0.559452
0.548939
0.53933
0.530528
0.522424
0.514928
0.507963
0.501469
0.495403
0.489733
0.484441
0.479519
0.474975
0.47083
0.467118
0.463888
0.461194
0.459074
0.457506
0.456324
0.455128
0.453194
0.449989
0.445134
0.438265
0.428746
0.414864
0.391432
0.344248
0.255569
0.648482
0.64274
0.635191
0.626274
0.616346
0.605669
0.594423
0.582705
0.570579
0.558166
0.545932
0.535141
0.525558
0.516905
0.508993
0.50169
0.494901
0.488558
0.482613
0.477036
0.471811
0.466938
0.462431
0.458328
0.454688
0.451605
0.449207
0.447653
0.44709
0.447509
0.448473
0.448624
0.447036
0.443271
0.437071
0.427925