/*--------------------------------*- C++ -*----------------------------------*\
| =========                 |                                                 |
| \\      /  F ield         | OpenFOAM: The Open Source CFD Toolbox           |
|  \\    /   O peration     | Version:  2.1.0                                 |
|   \\  /    A nd           | Web:      www.OpenFOAM.org                      |
|    \\/     M anipulation  |                                                 |
\*---------------------------------------------------------------------------*/
FoamFile
{
    version     2.0;
    format      ascii;
    class       volScalarField;
    location    "52195";
    object      kr_o;
}
// * * * * * * * * * * * * * * * * * * * * * * * * * * * * * * * * * * * * * //

dimensions      [0 0 0 0 0 0 0];

internalField   nonuniform List<scalar> 
15000
(
7.64944e-14
6.9875e-08
1.05873e-07
1.83924e-06
3.10974e-05
0.00020125
0.000687288
0.00157871
0.00284081
0.00439147
0.00615707
0.0080841
0.0101349
0.0122814
0.0145017
0.0167772
0.0190922
0.0214329
0.0237874
0.0261454
0.0284982
0.0308385
0.0331607
0.0354602
0.0377338
0.0399793
0.0421954
0.0443816
0.0465381
0.0486654
0.0507647
0.0528375
0.0548855
0.0569105
0.0589146
0.0609003
0.0628699
0.0648263
0.0667715
0.0687077
0.0706366
0.0725599
0.0744788
0.076395
0.0783094
0.0802232
0.0821371
0.0840515
0.0859666
0.0878824
0.0897984
0.091714
0.0936281
0.0955395
0.097447
0.0993491
0.101244
0.10313
0.105007
0.106871
0.108721
0.110557
0.112377
0.114181
0.115968
0.117737
0.119489
0.121224
0.122942
0.124643
0.126329
0.127999
0.129655
0.131297
0.132926
0.134542
0.136147
0.13774
0.139322
0.140895
0.142457
0.14401
0.145554
0.147089
0.148615
0.150132
0.151639
0.153137
0.154624
0.156101
0.157567
0.159021
0.160462
0.16189
0.163302
0.164699
0.166079
0.16744
0.168781
0.170101
0.171397
0.17267
0.173916
0.175134
0.176323
0.177482
0.178608
0.179702
0.180761
0.181786
0.182776
0.183732
0.184653
0.185542
0.186398
0.187224
0.18802
0.188788
0.189529
0.190248
0.19095
0.191643
0.192342
0.193063
0.193828
0.194659
0.195565
0.196522
0.197441
0.198201
0.198779
0.199197
0.199496
0.199795
0.200097
0.200406
0.200726
0.201059
0.201407
0.201774
0.202166
0.202592
0.203066
0.203606
0.204241
0.205011
0.205987
0.207311
0.20933
0.213467
6.50834e-08
1.19998e-07
2.97004e-07
5.38111e-06
5.98352e-05
0.000301915
0.00089092
0.00187665
0.00320618
0.00480026
0.00659308
0.00853766
0.0106002
0.0127551
0.0149819
0.0172627
0.0195824
0.0219275
0.0242861
0.0266481
0.0290047
0.0313488
0.0336744
0.0359771
0.0382536
0.0405016
0.0427198
0.0449076
0.0470652
0.0491934
0.0512932
0.0533663
0.0554141
0.0574387
0.0594422
0.0614269
0.0633954
0.0653504
0.067294
0.0692281
0.0711545
0.0730748
0.0749908
0.0769037
0.0788149
0.0807256
0.0826364
0.084548
0.0864606
0.0883742
0.0902883
0.0922024
0.0941156
0.0960266
0.0979342
0.0998369
0.101733
0.103621
0.1055
0.107366
0.109219
0.111057
0.11288
0.114686
0.116475
0.118246
0.120001
0.121737
0.123457
0.125161
0.126848
0.12852
0.130177
0.131821
0.133451
0.135069
0.136675
0.138269
0.139853
0.141427
0.14299
0.144545
0.146091
0.147628
0.149156
0.150675
0.152186
0.153687
0.155179
0.15666
0.158131
0.159591
0.161039
0.162475
0.163897
0.165305
0.166697
0.168072
0.169429
0.170767
0.172085
0.173381
0.174655
0.175905
0.17713
0.17833
0.179505
0.180654
0.181778
0.182878
0.183956
0.185013
0.186052
0.187076
0.188088
0.189091
0.190086
0.191074
0.192054
0.19303
0.194013
0.195026
0.196108
0.197317
0.198729
0.200435
0.202506
0.204897
0.207248
0.208964
0.210075
0.210715
0.211013
0.211187
0.211243
0.211206
0.211127
0.211027
0.210891
0.210695
0.210426
0.210102
0.209757
0.20944
0.209205
0.209114
0.209249
0.20975
0.210966
0.214313
1.03926e-07
3.61037e-07
1.99094e-06
2.22772e-05
0.000141687
0.000513287
0.0012499
0.00235272
0.00375847
0.00539814
0.00721784
0.00917874
0.0112519
0.0134143
0.015647
0.017933
0.0202574
0.022607
0.0249701
0.0273362
0.0296968
0.0320443
0.034373
0.0366782
0.0389566
0.0412057
0.0434242
0.0456117
0.0477684
0.049895
0.0519926
0.0540628
0.0561073
0.058128
0.0601271
0.062107
0.0640705
0.0660199
0.0679574
0.069885
0.0718045
0.0737176
0.0756262
0.0775318
0.0794357
0.0813393
0.0832434
0.0851487
0.0870557
0.0889644
0.0908744
0.0927852
0.0946959
0.0966054
0.0985124
0.100415
0.102313
0.104202
0.106082
0.107951
0.109807
0.111648
0.113473
0.115282
0.117074
0.118848
0.120604
0.122343
0.124064
0.125768
0.127457
0.129129
0.130787
0.132431
0.134062
0.13568
0.137286
0.13888
0.140464
0.142038
0.143603
0.145158
0.146705
0.148243
0.149773
0.151295
0.152808
0.154313
0.155809
0.157296
0.158773
0.16024
0.161697
0.163143
0.164577
0.165998
0.167406
0.168799
0.170176
0.171538
0.172882
0.174209
0.175518
0.176808
0.17808
0.179334
0.180571
0.181792
0.183
0.184199
0.185392
0.186585
0.187785
0.188998
0.190235
0.191502
0.192806
0.194151
0.195532
0.196944
0.198395
0.199929
0.201628
0.203618
0.206078
0.209238
0.213323
0.218376
0.223391
0.226261
0.227862
0.228672
0.228954
0.228857
0.228375
0.227561
0.22665
0.225717
0.224695
0.223486
0.222039
0.220408
0.218685
0.216982
0.21541
0.214066
0.213046
0.212493
0.212746
0.215214
1.73015e-06
5.20534e-06
2.15956e-05
9.97049e-05
0.000352639
0.000906253
0.00180821
0.00302688
0.00450332
0.0061838
0.00802708
0.0100023
0.0120849
0.0142544
0.016493
0.0187845
0.0211144
0.0234693
0.0258375
0.0282085
0.0305735
0.032925
0.0352568
0.0375641
0.0398436
0.0420926
0.04431
0.0464953
0.0486486
0.050771
0.0528636
0.0549279
0.0569657
0.0589792
0.0609704
0.0629418
0.0648962
0.0668358
0.0687629
0.0706794
0.0725872
0.0744885
0.0763851
0.0782787
0.0801709
0.0820632
0.0839568
0.0858523
0.0877505
0.0896515
0.0915552
0.0934609
0.0953678
0.0972749
0.0991807
0.101084
0.102982
0.104873
0.106756
0.108628
0.110487
0.112331
0.11416
0.115972
0.117766
0.119543
0.121301
0.123041
0.124763
0.126468
0.128156
0.129828
0.131486
0.133129
0.134759
0.136376
0.137981
0.139575
0.141158
0.142731
0.144295
0.14585
0.147397
0.148936
0.150467
0.151991
0.153507
0.155016
0.156517
0.15801
0.159494
0.16097
0.162437
0.163895
0.165343
0.16678
0.168206
0.16962
0.171022
0.172411
0.173788
0.175152
0.176502
0.177841
0.179169
0.180488
0.1818
0.18311
0.184422
0.185742
0.18708
0.188446
0.189854
0.191323
0.192874
0.194533
0.196324
0.198267
0.200349
0.202497
0.204687
0.20698
0.209521
0.212534
0.21634
0.221368
0.228115
0.237077
0.245826
0.248667
0.250109
0.250829
0.251081
0.250688
0.249516
0.247503
0.245464
0.243574
0.241596
0.23923
0.236321
0.233004
0.229468
0.225937
0.222621
0.219683
0.217244
0.215448
0.21462
0.216152
2.82262e-05
5.53925e-05
0.000134401
0.00034441
0.000789372
0.00153702
0.00258777
0.00390286
0.00543667
0.00715049
0.00901363
0.0110015
0.0130933
0.0152705
0.0175161
0.0198145
0.0221512
0.024513
0.0268879
0.0292653
0.031636
0.0339922
0.0363276
0.0386372
0.0409174
0.0431656
0.0453805
0.0475616
0.0497096
0.0518253
0.05391
0.0559655
0.0579936
0.0599964
0.061976
0.0639353
0.0658766
0.0678022
0.0697142
0.0716148
0.0735062
0.0753906
0.0772702
0.0791469
0.0810227
0.0828992
0.0847778
0.0866598
0.0885459
0.0904363
0.0923311
0.0942298
0.0961316
0.0980353
0.0999396
0.101843
0.103742
0.105636
0.107522
0.109397
0.111261
0.11311
0.114942
0.116758
0.118555
0.120334
0.122094
0.123834
0.125557
0.127261
0.128949
0.13062
0.132276
0.133918
0.135545
0.13716
0.138763
0.140355
0.141936
0.143508
0.14507
0.146624
0.14817
0.149709
0.151241
0.152766
0.154285
0.155798
0.157304
0.158804
0.160296
0.161781
0.16326
0.164731
0.166194
0.16765
0.169097
0.170536
0.171966
0.173388
0.174801
0.176207
0.177607
0.179002
0.180395
0.181789
0.18319
0.184603
0.186036
0.187502
0.189015
0.190595
0.19227
0.194077
0.196066
0.198307
0.200879
0.20386
0.20721
0.210556
0.213772
0.216972
0.220401
0.224409
0.22946
0.236182
0.245358
0.258577
0.269624
0.270012
0.271032
0.2715
0.271774
0.271426
0.270025
0.266658
0.263636
0.261325
0.25901
0.255997
0.251831
0.246843
0.241372
0.23576
0.230421
0.225651
0.221622
0.218476
0.216514
0.217104
0.000181715
0.000277314
0.000482235
0.000872675
0.00151195
0.00242175
0.00358581
0.00497237
0.00654949
0.00828981
0.0101702
0.0121705
0.0142725
0.0164591
0.018714
0.0210218
0.023368
0.0257394
0.0281235
0.0305096
0.032888
0.0352507
0.0375909
0.0399035
0.0421844
0.0444312
0.0466426
0.0488182
0.0509587
0.0530652
0.0551394
0.057183
0.0591981
0.0611868
0.0631517
0.065095
0.0670191
0.0689261
0.0708182
0.0726979
0.0745675
0.0764296
0.0782866
0.0801409
0.0819949
0.0838505
0.0857096
0.0875737
0.0894437
0.0913203
0.0932035
0.095093
0.0969882
0.0988878
0.10079
0.102693
0.104594
0.106491
0.108382
0.110262
0.112131
0.113985
0.115823
0.117643
0.119444
0.121225
0.122987
0.124728
0.12645
0.128154
0.12984
0.131509
0.133162
0.134801
0.136426
0.138037
0.139637
0.141225
0.142803
0.144371
0.145931
0.147482
0.149026
0.150564
0.152096
0.153623
0.155144
0.15666
0.158172
0.159679
0.16118
0.162675
0.164166
0.165652
0.167133
0.168609
0.17008
0.171546
0.173008
0.174466
0.175921
0.177375
0.178829
0.180287
0.181754
0.183234
0.184734
0.186265
0.18784
0.189475
0.191196
0.193036
0.195046
0.197295
0.199892
0.202988
0.206798
0.211593
0.217289
0.222355
0.226676
0.23061
0.234601
0.239128
0.244747
0.252156
0.262203
0.278076
0.283769
0.295099
0.305772
0.318725
0.327931
0.323007
0.306014
0.274153
0.272131
0.271277
0.270331
0.268464
0.264519
0.259038
0.252567
0.245231
0.237969
0.231408
0.225828
0.221377
0.218332
0.218038
0.000621264
0.00081728
0.00116877
0.00172594
0.00251645
0.00354131
0.00478357
0.00622071
0.0078305
0.00959305
0.01149
0.0135042
0.0156191
0.0178184
0.0200861
0.0224072
0.0247669
0.0271516
0.0295488
0.031947
0.0343364
0.0367084
0.0390556
0.0413726
0.0436551
0.0459005
0.0481075
0.0502761
0.052407
0.0545019
0.0565627
0.0585915
0.0605906
0.0625622
0.0645088
0.0664322
0.0683348
0.0702184
0.0720854
0.0739384
0.0757802
0.0776137
0.0794418
0.0812675
0.0830935
0.0849224
0.0867564
0.0885974
0.090447
0.0923058
0.0941744
0.0960525
0.0979394
0.0998337
0.101734
0.103637
0.105541
0.107442
0.109338
0.111225
0.113101
0.114962
0.116807
0.118633
0.120438
0.122223
0.123986
0.125728
0.12745
0.129151
0.130834
0.1325
0.13415
0.135784
0.137405
0.139012
0.140607
0.14219
0.143763
0.145327
0.146882
0.148429
0.14997
0.151506
0.153037
0.154564
0.156087
0.157606
0.159123
0.160637
0.162148
0.163654
0.165158
0.16666
0.168161
0.169659
0.171156
0.172652
0.174149
0.175646
0.177147
0.178653
0.180168
0.181696
0.183244
0.184819
0.186431
0.188095
0.189829
0.191659
0.193625
0.195779
0.198204
0.201024
0.204434
0.208733
0.21441
0.22228
0.232339
0.239204
0.244113
0.248124
0.251955
0.256159
0.261263
0.267826
0.276455
0.29255
0.332127
0.550025
0.561992
0.562491
0.553629
0.42606
0.427966
0.424404
0.398925
0.376639
0.342883
0.310083
0.271206
0.266684
0.261204
0.252861
0.244152
0.236229
0.229442
0.223932
0.219977
0.218927
0.00142955
0.00172073
0.00219244
0.00287026
0.00376223
0.00486269
0.006158
0.00763207
0.00926874
0.0110524
0.0129678
0.0149993
0.0171313
0.0193482
0.0216342
0.0239739
0.0263525
0.028756
0.0311715
0.0335871
0.0359922
0.0383774
0.0407352
0.0430592
0.045345
0.0475896
0.0497918
0.0519519
0.0540712
0.0561518
0.0581964
0.0602075
0.0621875
0.0641389
0.0660637
0.0679634
0.0698397
0.0716946
0.0735305
0.0753504
0.0771574
0.078955
0.0807469
0.0825365
0.0843272
0.0861224
0.0879249
0.0897369
0.0915605
0.0933971
0.0952472
0.097111
0.0989876
0.100876
0.102773
0.104677
0.106584
0.108492
0.110395
0.112291
0.114176
0.116047
0.1179
0.119734
0.121546
0.123334
0.1251
0.126842
0.128562
0.130261
0.13194
0.133602
0.135246
0.136875
0.13849
0.140092
0.14168
0.143258
0.144824
0.146381
0.14793
0.149472
0.151008
0.152539
0.154067
0.155593
0.157117
0.15864
0.160161
0.161683
0.163203
0.164723
0.166241
0.16776
0.169281
0.170803
0.172328
0.173857
0.17539
0.176931
0.178481
0.180044
0.181625
0.18323
0.184866
0.186545
0.188281
0.190093
0.192007
0.194062
0.196312
0.198841
0.201774
0.205305
0.209745
0.215607
0.223851
0.23651
0.254334
0.261487
0.265761
0.26894
0.271824
0.274874
0.278466
0.282958
0.288764
0.305379
0.363234
0.491263
0.558547
0.562394
0.562445
0.558609
0.556963
0.554674
0.550035
0.546801
0.421277
0.400575
0.320294
0.287553
0.263267
0.255491
0.247366
0.239379
0.232125
0.225985
0.221383
0.219751
0.00257257
0.00293498
0.00348917
0.00424532
0.0052025
0.00635351
0.00768738
0.00919197
0.0108545
0.0126616
0.0145997
0.0166541
0.0188097
0.021051
0.0233623
0.0257279
0.0281328
0.0305626
0.0330037
0.0354436
0.037871
0.0402759
0.0426494
0.0449847
0.0472766
0.0495219
0.0517194
0.0538697
0.0559751
0.0580386
0.0600638
0.062054
0.0640121
0.0659404
0.0678397
0.0697113
0.0715563
0.0733765
0.0751745
0.0769536
0.0787176
0.0804707
0.0822174
0.0839621
0.0857089
0.0874618
0.0892245
0.0910001
0.0927911
0.0945995
0.0964266
0.0982726
0.100137
0.102017
0.103912
0.105817
0.107729
0.109644
0.111558
0.113466
0.115364
0.117247
0.119113
0.120956
0.122776
0.124571
0.126339
0.128081
0.129799
0.131494
0.133168
0.134823
0.136461
0.138084
0.139692
0.141286
0.142867
0.144436
0.145994
0.147542
0.149083
0.150616
0.152145
0.153671
0.155194
0.156717
0.158241
0.159765
0.161292
0.16282
0.164351
0.165884
0.167417
0.168954
0.170496
0.172044
0.1736
0.175163
0.176737
0.178324
0.179928
0.181553
0.183205
0.184893
0.186627
0.18842
0.190292
0.192269
0.194387
0.196699
0.199283
0.202254
0.205791
0.210167
0.215819
0.223507
0.234821
0.253757
0.282505
0.287353
0.290738
0.292873
0.294352
0.295471
0.296726
0.298209
0.300182
0.321555
0.412315
0.529605
0.5607
0.562449
0.562498
0.562432
0.562371
0.562266
0.562102
0.562036
0.551607
0.548438
0.512301
0.294711
0.263693
0.256494
0.248965
0.241277
0.233972
0.227541
0.222539
0.220503
0.00396815
0.00437971
0.00498817
0.00579567
0.0067976
0.00798663
0.00935355
0.0108883
0.0125797
0.0144159
0.0163838
0.0184692
0.0206572
0.0229321
0.025278
0.0276791
0.03012
0.0325858
0.0350624
0.0375365
0.0399958
0.0424291
0.0448265
0.0471799
0.049483
0.0517318
0.0539253
0.0560646
0.0581532
0.0601959
0.0621981
0.0641642
0.0660974
0.0679989
0.0698692
0.0717081
0.0735163
0.0752951
0.0770471
0.0787762
0.0804871
0.0821851
0.0838757
0.0855643
0.0872562
0.0889562
0.0906688
0.0923984
0.0941484
0.0959216
0.0977197
0.0995433
0.101392
0.103263
0.105154
0.107061
0.108981
0.110907
0.112834
0.114758
0.116673
0.118574
0.120455
0.122313
0.124144
0.125946
0.127718
0.129461
0.131175
0.132864
0.134531
0.136179
0.137809
0.139423
0.141022
0.142607
0.144179
0.145738
0.147286
0.148823
0.150352
0.151874
0.153393
0.154909
0.156426
0.157944
0.159465
0.160991
0.162521
0.164056
0.165597
0.167143
0.16869
0.170246
0.171812
0.173387
0.174975
0.176576
0.178194
0.179832
0.181494
0.183187
0.184917
0.186697
0.188537
0.190458
0.192482
0.194645
0.196996
0.199604
0.202574
0.20606
0.210292
0.215619
0.222594
0.232199
0.246643
0.271646
0.305621
0.344505
0.375691
0.425335
0.496127
0.538051
0.519669
0.471463
0.367417
0.379486
0.491945
0.559049
0.562377
0.562497
0.5625
0.562499
0.562497
0.562494
0.56249
0.562488
0.562184
0.562054
0.559269
0.270685
0.263528
0.257012
0.249623
0.24237
0.235209
0.228697
0.223481
0.22119
0.00553983
0.00598601
0.00663275
0.00747816
0.00851635
0.00974022
0.0111415
0.0127111
0.0144389
0.0163131
0.018321
0.0204484
0.02268
0.0250002
0.0273929
0.0298419
0.0323315
0.0348464
0.0373718
0.0398937
0.0423984
0.0448735
0.0473071
0.0496893
0.0520119
0.0542699
0.0564613
0.0585883
0.0606565
0.0626737
0.064648
0.0665853
0.0684893
0.0703606
0.0721981
0.074
0.0757654
0.0774949
0.079191
0.0808585
0.0825034
0.0841326
0.0857531
0.0873716
0.0889945
0.0906278
0.0922773
0.0939485
0.0956463
0.0973745
0.0991358
0.100931
0.10276
0.10462
0.106507
0.108418
0.110346
0.112287
0.114233
0.116178
0.118116
0.120041
0.121945
0.123822
0.125676
0.127498
0.129281
0.131024
0.132735
0.134417
0.136074
0.137711
0.13933
0.140933
0.142522
0.144095
0.145655
0.1472
0.148733
0.150254
0.151767
0.153273
0.154777
0.156279
0.157785
0.159295
0.160811
0.162335
0.163867
0.165409
0.166959
0.168518
0.170087
0.171662
0.173251
0.174856
0.176478
0.17812
0.179785
0.181478
0.183203
0.18497
0.186786
0.188665
0.190624
0.192686
0.194882
0.197258
0.199876
0.202828
0.206244
0.210314
0.215315
0.221659
0.23
0.241539
0.259205
0.290441
0.324042
0.403371
0.520972
0.561483
0.562491
0.562409
0.55879
0.556385
0.558779
0.539647
0.556868
0.562203
0.56249
0.5625
0.5625
0.5625
0.5625
0.5625
0.5625
0.5625
0.562494
0.562493
0.50542
0.269922
0.263524
0.2574
0.250211
0.243077
0.236072
0.22957
0.224259
0.221827
0.0072295
0.00770274
0.00838082
0.00926017
0.0103344
0.0115967
0.0130393
0.0146534
0.0164288
0.0183539
0.0204155
0.022599
0.024889
0.0272695
0.0297242
0.0322369
0.0347918
0.0373731
0.0399656
0.0425542
0.0451242
0.0476609
0.0501501
0.0525789
0.0549359
0.057213
0.059407
0.0615208
0.0635633
0.0655471
0.0674849
0.0693862
0.0712555
0.0730926
0.074894
0.0766545
0.0783706
0.0800413
0.081669
0.0832598
0.0848217
0.0863639
0.0878958
0.0894255
0.090961
0.0925094
0.0940779
0.0956739
0.0973041
0.0989742
0.100688
0.102447
0.10425
0.106096
0.107979
0.109894
0.111835
0.113794
0.115765
0.11774
0.119709
0.121666
0.123602
0.125528
0.127423
0.129276
0.13108
0.132829
0.134532
0.136201
0.137843
0.139465
0.14107
0.142661
0.144236
0.145797
0.147341
0.14887
0.150385
0.151886
0.153376
0.15486
0.156341
0.157823
0.159311
0.160807
0.162314
0.163833
0.165365
0.16691
0.168469
0.170042
0.171629
0.173224
0.174839
0.176474
0.178133
0.179818
0.181534
0.183286
0.185081
0.186928
0.188839
0.19083
0.192923
0.195147
0.197542
0.200166
0.203096
0.206444
0.210363
0.215074
0.220887
0.228264
0.237949
0.251411
0.272546
0.310823
0.338189
0.472452
0.561128
0.562489
0.5625
0.5625
0.562466
0.562401
0.562393
0.561657
0.562248
0.562489
0.5625
0.5625
0.5625
0.5625
0.5625
0.5625
0.5625
0.5625
0.5625
0.559782
0.375584
0.270067
0.263721
0.257729
0.250733
0.243683
0.236714
0.230259
0.224922
0.222429
0.00899412
0.00949144
0.0102002
0.0111159
0.0122321
0.0135421
0.0150381
0.016711
0.0185502
0.0205433
0.0226762
0.0249341
0.027301
0.0297607
0.0322969
0.0348937
0.0375353
0.0402062
0.0428909
0.0455736
0.0482381
0.0508674
0.0534439
0.0559496
0.0583677
0.0606842
0.0628914
0.0649915
0.0669983
0.0689333
0.0708188
0.072671
0.0744973
0.0762959
0.0780588
0.0797748
0.0814349
0.0830353
0.0845781
0.086071
0.0875257
0.0889555
0.090373
0.0917884
0.0932109
0.0946491
0.0961119
0.0976091
0.0991502
0.100743
0.102394
0.104105
0.105876
0.107703
0.10958
0.111502
0.113459
0.115444
0.117447
0.11946
0.121473
0.123476
0.125485
0.127473
0.129424
0.131322
0.133155
0.134916
0.136606
0.138256
0.139877
0.141478
0.143066
0.144641
0.146202
0.147748
0.149277
0.150787
0.152279
0.153754
0.155215
0.156668
0.158118
0.159571
0.161033
0.162508
0.164
0.16551
0.167038
0.168586
0.170152
0.171737
0.173341
0.17496
0.176598
0.178265
0.179962
0.181694
0.183465
0.185284
0.187157
0.189097
0.191119
0.193242
0.195495
0.197914
0.200548
0.203465
0.206757
0.210551
0.215017
0.220394
0.227015
0.235376
0.246312
0.261641
0.28666
0.334326
0.351664
0.526253
0.56158
0.562485
0.5625
0.5625
0.5625
0.562499
0.562498
0.562481
0.562494
0.5625
0.5625
0.5625
0.5625
0.5625
0.5625
0.5625
0.5625
0.562498
0.562322
0.545427
0.340759
0.27031
0.263954
0.258006
0.251144
0.244203
0.237299
0.23085
0.225512
0.223009
0.0108
0.0113217
0.0120647
0.0130243
0.0141937
0.015566
0.0171331
0.0188847
0.020809
0.0228923
0.0251195
0.0274747
0.0299417
0.0325043
0.0351466
0.0378536
0.0406104
0.0434025
0.0462147
0.0490315
0.0518355
0.0546071
0.0573241
0.0599617
0.0625522
0.0650212
0.0672692
0.0693553
0.0713017
0.0731487
0.0749416
0.0767117
0.0784729
0.0802217
0.0819408
0.0836067
0.0851994
0.0867091
0.0881369
0.0894937
0.0907975
0.0920697
0.0933286
0.0945873
0.0958555
0.0971428
0.09846
0.0998203
0.101238
0.102724
0.104288
0.105934
0.107659
0.10946
0.11133
0.113259
0.115237
0.117255
0.119301
0.121366
0.123439
0.125526
0.127626
0.129712
0.131761
0.133748
0.135642
0.137423
0.139094
0.140713
0.1423
0.14387
0.145432
0.146987
0.148532
0.150062
0.151571
0.153057
0.154518
0.155957
0.157376
0.158784
0.160187
0.161595
0.163017
0.164459
0.165926
0.167419
0.168938
0.170484
0.172054
0.17365
0.17527
0.176917
0.178581
0.180281
0.182021
0.183806
0.185643
0.187539
0.189506
0.19156
0.193717
0.196005
0.198455
0.201111
0.20403
0.207289
0.210988
0.215262
0.220289
0.226315
0.23368
0.242905
0.254916
0.271911
0.300798
0.357767
0.453973
0.549684
0.562273
0.562497
0.5625
0.5625
0.5625
0.5625
0.5625
0.5625
0.5625
0.5625
0.5625
0.5625
0.5625
0.5625
0.5625
0.5625
0.5625
0.562495
0.562163
0.544606
0.31403
0.270352
0.264088
0.258204
0.251475
0.244642
0.237815
0.231408
0.226086
0.223582
0.012619
0.0131679
0.0139523
0.0149675
0.0162065
0.017662
0.0193243
0.0211814
0.0232192
0.0254217
0.0277721
0.0302535
0.0328494
0.0355445
0.0383242
0.0411755
0.0440856
0.0470426
0.0500337
0.053045
0.0560598
0.0590573
0.0621067
0.0653375
0.068603
0.0717583
0.074556
0.0765926
0.0783556
0.079935
0.0814471
0.0829685
0.0845358
0.0861452
0.0877579
0.0893171
0.0907712
0.0920954
0.0932886
0.0943686
0.0953699
0.096335
0.0972963
0.0982719
0.0992708
0.100301
0.101374
0.102508
0.103723
0.105038
0.106464
0.108005
0.109659
0.111418
0.113271
0.115205
0.117208
0.119266
0.121368
0.123502
0.125656
0.12787
0.130111
0.132364
0.134602
0.136781
0.138825
0.140663
0.142302
0.143865
0.14539
0.146906
0.148427
0.149955
0.15148
0.15299
0.154473
0.155925
0.157343
0.158726
0.16008
0.161412
0.162736
0.164067
0.165419
0.166804
0.168225
0.169686
0.171185
0.17272
0.174288
0.17589
0.177524
0.179192
0.180883
0.182617
0.184405
0.186253
0.18817
0.190165
0.192253
0.194451
0.196783
0.199278
0.201973
0.204916
0.208168
0.211807
0.215937
0.220691
0.226249
0.232851
0.240842
0.25076
0.263621
0.28203
0.314457
0.376563
0.502363
0.555749
0.562379
0.562498
0.5625
0.5625
0.5625
0.5625
0.5625
0.5625
0.5625
0.5625
0.5625
0.5625
0.5625
0.5625
0.5625
0.5625
0.5625
0.562493
0.562196
0.552448
0.278098
0.269872
0.264061
0.258336
0.251762
0.245041
0.238298
0.231946
0.226657
0.224158
0.0144264
0.0150071
0.0158435
0.0169308
0.0182622
0.0198291
0.0216197
0.0236186
0.0258073
0.0281665
0.0306768
0.0333203
0.0360812
0.038946
0.0419032
0.0449435
0.0480592
0.0512439
0.0544906
0.0577921
0.0611374
0.0646921
0.0687107
0.0730861
0.0778813
0.082788
0.0874132
0.0898105
0.0911624
0.0920442
0.0928272
0.0937162
0.0948206
0.0961462
0.0976011
0.0990256
0.100263
0.101247
0.10197
0.102463
0.102804
0.103103
0.103436
0.103831
0.104293
0.10482
0.105422
0.106123
0.106958
0.107953
0.109127
0.110479
0.112002
0.11368
0.115493
0.117421
0.119446
0.12155
0.123721
0.125945
0.128232
0.130621
0.133092
0.135645
0.138265
0.140886
0.143327
0.145312
0.146894
0.148338
0.149732
0.151135
0.152577
0.154059
0.155559
0.157044
0.158493
0.159895
0.161243
0.162536
0.163776
0.164973
0.166149
0.167335
0.168556
0.169829
0.171162
0.172558
0.174011
0.175516
0.177069
0.178666
0.180307
0.181993
0.183727
0.185495
0.187336
0.189258
0.191271
0.193388
0.195626
0.198005
0.200553
0.203301
0.206287
0.209559
0.213174
0.217206
0.221751
0.226938
0.23294
0.239994
0.248449
0.258864
0.272356
0.291981
0.327774
0.391249
0.532318
0.561014
0.562472
0.5625
0.5625
0.5625
0.5625
0.5625
0.5625
0.5625
0.5625
0.5625
0.5625
0.5625
0.5625
0.5625
0.5625
0.5625
0.5625
0.562483
0.561671
0.53217
0.277081
0.269717
0.264136
0.258508
0.252063
0.245442
0.238777
0.232482
0.227231
0.224738
0.0162032
0.0168244
0.0177274
0.0189068
0.020354
0.0220584
0.0240376
0.0262302
0.0286203
0.0311847
0.0339013
0.0367517
0.0397223
0.0428037
0.0459904
0.0492808
0.0526764
0.0561822
0.0598056
0.0635567
0.0675714
0.0725335
0.0784591
0.0854545
0.0938083
0.102139
0.111211
0.114408
0.114859
0.113849
0.112766
0.112114
0.112202
0.113087
0.114723
0.117263
0.118315
0.118741
0.118522
0.117711
0.116491
0.115227
0.114143
0.11329
0.112632
0.112125
0.11176
0.111574
0.111631
0.111985
0.112657
0.11364
0.114907
0.11642
0.118141
0.120035
0.12207
0.124223
0.126476
0.128816
0.131303
0.133943
0.13677
0.139829
0.143169
0.146748
0.150164
0.15242
0.153881
0.155046
0.156147
0.157306
0.158595
0.160017
0.161511
0.162991
0.164412
0.165755
0.167009
0.168162
0.169211
0.170165
0.171061
0.171966
0.172929
0.173986
0.17515
0.176419
0.177781
0.179223
0.180734
0.182307
0.183938
0.185631
0.18739
0.189197
0.191089
0.193093
0.19522
0.197485
0.199905
0.202504
0.205309
0.208351
0.211666
0.215291
0.21927
0.223662
0.228554
0.234066
0.240372
0.247713
0.256447
0.267167
0.281118
0.301913
0.341352
0.402215
0.547465
0.562322
0.562498
0.5625
0.5625
0.5625
0.5625
0.5625
0.5625
0.5625
0.5625
0.5625
0.5625
0.5625
0.5625
0.5625
0.5625
0.5625
0.5625
0.562471
0.559832
0.431082
0.277205
0.269894
0.264363
0.258773
0.25242
0.245878
0.239278
0.23303
0.22781
0.225322
0.0179359
0.0186141
0.0196096
0.0209167
0.0225248
0.0244185
0.0266005
0.0290134
0.0316232
0.0345256
0.0375497
0.0406642
0.0439003
0.0472586
0.050745
0.0543713
0.0581576
0.0621318
0.0663335
0.0708129
0.0767181
0.0844659
0.0946057
0.105873
0.11957
0.129931
0.142909
0.145367
0.145074
0.141087
0.137442
0.134794
0.133755
0.134649
0.138995
0.145458
0.148189
0.148356
0.147035
0.144152
0.139916
0.13561
0.131932
0.128929
0.126385
0.124102
0.122002
0.12015
0.118715
0.117835
0.117558
0.117852
0.118645
0.119854
0.121397
0.123208
0.125232
0.127431
0.12978
0.13227
0.134991
0.137975
0.141306
0.145121
0.149624
0.15491
0.160225
0.162588
0.163795
0.164333
0.164856
0.165563
0.166613
0.168026
0.169944
0.171698
0.173146
0.174457
0.175619
0.176603
0.177377
0.177925
0.1783
0.178677
0.179161
0.179822
0.180683
0.181732
0.182938
0.184269
0.185702
0.187218
0.188813
0.19049
0.192258
0.194128
0.196063
0.19815
0.200399
0.202825
0.205445
0.208284
0.211367
0.214723
0.218376
0.222346
0.226645
0.231311
0.23642
0.242091
0.248515
0.255954
0.264785
0.275644
0.289965
0.312127
0.356521
0.409907
0.551578
0.562348
0.562498
0.5625
0.5625
0.5625
0.5625
0.5625
0.5625
0.5625
0.5625
0.5625
0.5625
0.5625
0.5625
0.5625
0.5625
0.5625
0.562491
0.561678
0.532608
0.358965
0.27749
0.27021
0.264705
0.259141
0.252858
0.246376
0.239822
0.233603
0.228399
0.225909
0.0196092
0.0203658
0.0214877
0.0229713
0.0248037
0.0269613
0.0294239
0.0321317
0.0350386
0.0382021
0.0415066
0.0452048
0.048804
0.0525234
0.0564086
0.0605003
0.0648532
0.0695412
0.0746667
0.0811452
0.0904415
0.104164
0.121197
0.134957
0.151659
0.157204
0.161885
0.184615
0.190784
0.152757
0.150504
0.148602
0.148125
0.150216
0.158519
0.170145
0.173655
0.175878
0.175435
0.172538
0.165993
0.158877
0.153098
0.148542
0.144552
0.140613
0.136508
0.132361
0.128652
0.125823
0.124044
0.123264
0.123333
0.124082
0.12536
0.127044
0.129044
0.131294
0.13376
0.136436
0.139433
0.142813
0.146727
0.151438
0.15743
0.164879
0.172151
0.173969
0.174837
0.174332
0.174133
0.174292
0.175141
0.176833
0.180701
0.183185
0.184949
0.186331
0.187505
0.188408
0.188935
0.188951
0.188438
0.187936
0.187624
0.187654
0.188064
0.188807
0.189807
0.190997
0.192324
0.193756
0.19528
0.196904
0.198651
0.200542
0.20256
0.20472
0.207092
0.209685
0.212512
0.215593
0.218953
0.222613
0.226588
0.230865
0.2354
0.240205
0.245349
0.250965
0.2573
0.264656
0.273429
0.284304
0.298971
0.322984
0.375858
0.416612
0.552567
0.562353
0.562498
0.5625
0.5625
0.5625
0.5625
0.5625
0.5625
0.5625
0.5625
0.5625
0.5625
0.5625
0.5625
0.5625
0.562493
0.562404
0.560586
0.541151
0.462155
0.319609
0.277602
0.270533
0.265121
0.259611
0.253396
0.24696
0.240429
0.234213
0.228999
0.2265
0.0212119
0.0220734
0.0233676
0.0250974
0.0272477
0.0297783
0.0326337
0.0357375
0.0390349
0.0425499
0.0462296
0.0502217
0.0545
0.0589099
0.0633616
0.0681294
0.0733407
0.0791634
0.0858522
0.0969376
0.112671
0.13555
0.157448
0.16612
0.173262
0.3121
0.524151
0.549062
0.523114
0.485206
0.209934
0.160478
0.159506
0.163134
0.178212
0.186098
0.231714
0.381757
0.397249
0.23419
0.176589
0.171153
0.167215
0.164255
0.161328
0.157683
0.15283
0.14676
0.140462
0.135232
0.131593
0.129507
0.128718
0.128943
0.129936
0.131505
0.133507
0.135844
0.138462
0.141359
0.144627
0.148361
0.152774
0.158277
0.165744
0.174691
0.180405
0.194329
0.204035
0.182243
0.181749
0.18151
0.182361
0.185528
0.193983
0.198639
0.200641
0.202221
0.20449
0.205554
0.206048
0.205451
0.203054
0.20085
0.199073
0.198021
0.197754
0.1981
0.198865
0.199904
0.201114
0.202435
0.203839
0.205344
0.207015
0.208895
0.211
0.213233
0.215705
0.218415
0.221371
0.224598
0.228127
0.231995
0.236227
0.240795
0.245483
0.250282
0.255262
0.260577
0.266635
0.273796
0.282433
0.293227
0.308196
0.334417
0.398642
0.538764
0.561836
0.562491
0.5625
0.5625
0.5625
0.5625
0.5625
0.5625
0.5625
0.5625
0.5625
0.5625
0.5625
0.5625
0.5625
0.5625
0.562493
0.562301
0.557778
0.524078
0.422433
0.2848
0.277224
0.270823
0.265623
0.260213
0.254067
0.247659
0.241094
0.23487
0.229631
0.227101
0.0227365
0.0237359
0.0252651
0.0273457
0.0299616
0.0330366
0.0364511
0.0400946
0.043906
0.0478923
0.0520458
0.0564557
0.0611729
0.0665362
0.0721967
0.0780143
0.0846046
0.0923917
0.104342
0.125927
0.148248
0.175623
0.184661
0.281262
0.515495
0.55624
0.561934
0.562341
0.562066
0.561522
0.545757
0.236277
0.17604
0.181212
0.201195
0.418591
0.559143
0.560931
0.560193
0.5418
0.219858
0.179006
0.177343
0.176753
0.175906
0.173902
0.169715
0.162263
0.152674
0.144666
0.139122
0.135803
0.134255
0.134059
0.134874
0.136435
0.138544
0.141052
0.143873
0.147007
0.150478
0.154399
0.159021
0.164951
0.173655
0.183202
0.260428
0.544886
0.552063
0.519651
0.245315
0.190596
0.190546
0.19474
0.204414
0.282124
0.524935
0.491743
0.55431
0.561105
0.527654
0.268945
0.210908
0.209297
0.207628
0.206551
0.206435
0.20699
0.207953
0.20915
0.210464
0.211817
0.213162
0.214533
0.216116
0.217985
0.220141
0.222545
0.225109
0.2279
0.230934
0.234249
0.237907
0.242
0.246643
0.251862
0.256768
0.2615
0.26615
0.270875
0.276574
0.283597
0.292136
0.302793
0.318091
0.34689
0.420414
0.551156
0.562269
0.562497
0.5625
0.5625
0.5625
0.5625
0.5625
0.5625
0.5625
0.5625
0.5625
0.5625
0.5625
0.5625
0.5625
0.5625
0.562497
0.562392
0.557495
0.530423
0.433232
0.284346
0.277384
0.271367
0.26633
0.261019
0.254832
0.248461
0.241897
0.235631
0.23032
0.227715
0.0241792
0.025355
0.0272066
0.0298046
0.0331396
0.037055
0.0412914
0.0456881
0.050186
0.054798
0.0595587
0.0645614
0.069934
0.0759673
0.0833313
0.0914081
0.100521
0.11234
0.142268
0.180028
0.198946
0.210005
0.482158
0.552057
0.561503
0.562415
0.562494
0.562498
0.562496
0.562492
0.562264
0.499943
0.314125
0.208997
0.261826
0.517242
0.561771
0.562488