/*--------------------------------*- C++ -*----------------------------------*\
| =========                 |                                                 |
| \\      /  F ield         | OpenFOAM: The Open Source CFD Toolbox           |
|  \\    /   O peration     | Version:  2.1.0                                 |
|   \\  /    A nd           | Web:      www.OpenFOAM.org                      |
|    \\/     M anipulation  |                                                 |
\*---------------------------------------------------------------------------*/
FoamFile
{
    version     2.0;
    format      ascii;
    class       volScalarField;
    location    "52195";
    object      kr_w;
}
// * * * * * * * * * * * * * * * * * * * * * * * * * * * * * * * * * * * * * //

dimensions      [0 0 0 0 0 0 0];

internalField   nonuniform List<scalar> 
15000
(
0.5625
0.562499
0.562498
0.56247
0.561992
0.55924
0.551631
0.538564
0.521758
0.503341
0.48476
0.466773
0.449712
0.433691
0.418721
0.404765
0.391763
0.379652
0.368365
0.357837
0.348007
0.338817
0.330213
0.322145
0.314566
0.307433
0.300707
0.294351
0.288333
0.282622
0.27719
0.272014
0.267069
0.262335
0.257793
0.253427
0.249219
0.245155
0.241221
0.237406
0.233699
0.230092
0.226577
0.223148
0.219797
0.21652
0.213312
0.210169
0.20709
0.204071
0.20111
0.198208
0.195362
0.192572
0.18984
0.187163
0.184544
0.181981
0.179476
0.177027
0.174636
0.172302
0.170024
0.167802
0.165633
0.163517
0.161452
0.159437
0.157468
0.155545
0.153666
0.151828
0.150029
0.148269
0.146544
0.144854
0.143197
0.141571
0.139975
0.138408
0.136869
0.135357
0.13387
0.132409
0.130973
0.12956
0.128172
0.126807
0.125466
0.124149
0.122855
0.121585
0.120338
0.119116
0.117918
0.116745
0.115598
0.114477
0.113383
0.112316
0.111277
0.110266
0.109285
0.108334
0.107413
0.106522
0.105663
0.104836
0.10404
0.103275
0.102542
0.101838
0.101164
0.100518
0.0998994
0.0993059
0.0987368
0.0981906
0.0976657
0.0971596
0.096668
0.0961842
0.0956989
0.0952004
0.0946744
0.0941065
0.0934901
0.092843
0.092226
0.0917184
0.0913341
0.0910569
0.0908594
0.0906621
0.0904629
0.0902595
0.0900497
0.0898319
0.0896047
0.0893656
0.089111
0.0888348
0.0885286
0.0881805
0.0877736
0.087282
0.0866618
0.0858279
0.0845695
0.0820436
0.562499
0.562498
0.562495
0.562412
0.561524
0.557634
0.548549
0.534429
0.517215
0.498833
0.4805
0.462831
0.446093
0.430372
0.415668
0.401945
0.389146
0.377211
0.366077
0.355683
0.345971
0.336885
0.328374
0.320389
0.312885
0.305821
0.299158
0.292861
0.286898
0.281237
0.275853
0.270721
0.265818
0.261124
0.25662
0.25229
0.248116
0.244084
0.240182
0.236397
0.232719
0.229141
0.225653
0.22225
0.218924
0.215671
0.212486
0.209365
0.206306
0.203305
0.200363
0.197476
0.194645
0.19187
0.18915
0.186485
0.183875
0.181321
0.178824
0.176384
0.174
0.171673
0.169402
0.167186
0.165024
0.162914
0.160855
0.158845
0.156883
0.154966
0.153092
0.15126
0.149467
0.147712
0.145993
0.144308
0.142655
0.141035
0.139444
0.137882
0.136348
0.13484
0.133357
0.1319
0.130467
0.129058
0.127672
0.12631
0.12497
0.123654
0.122361
0.12109
0.119843
0.118618
0.117417
0.116241
0.115088
0.11396
0.112858
0.111781
0.11073
0.109705
0.108707
0.107736
0.106792
0.105875
0.104984
0.10412
0.103281
0.102466
0.101674
0.100902
0.100149
0.0994117
0.0986877
0.0979754
0.0972733
0.0965811
0.0958985
0.0952232
0.0945478
0.0938562
0.0931225
0.0923092
0.0913671
0.0902407
0.0888907
0.0873545
0.0858676
0.0847965
0.0841097
0.0837165
0.0835335
0.0834273
0.0833927
0.0834155
0.0834638
0.0835253
0.0836083
0.0837287
0.0838935
0.084093
0.0843055
0.0845015
0.0846469
0.0847033
0.0846201
0.0843099
0.0835624
0.0815356
0.562498
0.562494
0.562467
0.562136
0.560198
0.554313
0.543258
0.528043
0.510594
0.492471
0.474597
0.457429
0.441165
0.425869
0.411537
0.398135
0.385614
0.37392
0.362994
0.352783
0.343232
0.334289
0.325907
0.318038
0.310641
0.303674
0.297102
0.290889
0.285004
0.279417
0.274102
0.269035
0.264194
0.259559
0.255112
0.250834
0.246712
0.242728
0.238872
0.235133
0.231499
0.227962
0.224514
0.221149
0.21786
0.214641
0.211488
0.208398
0.205366
0.202392
0.199473
0.196608
0.193797
0.191039
0.188335
0.185684
0.183087
0.180545
0.178058
0.175627
0.173252
0.170933
0.16867
0.166461
0.164307
0.162205
0.160154
0.158152
0.156197
0.154288
0.152422
0.150598
0.148813
0.147066
0.145354
0.143677
0.142032
0.140419
0.138835
0.13728
0.135752
0.13425
0.132773
0.131321
0.129893
0.128488
0.127106
0.125746
0.124408
0.123093
0.1218
0.120529
0.11928
0.118053
0.116848
0.115665
0.114506
0.113369
0.112255
0.111165
0.110098
0.109055
0.108036
0.107039
0.106066
0.105114
0.104183
0.103271
0.102376
0.101496
0.100627
0.0997646
0.0989046
0.0980413
0.0971691
0.0962825
0.0953778
0.0944534
0.0935123
0.0925596
0.0915892
0.0905736
0.089461
0.0881733
0.0866044
0.0846266
0.0821306
0.0791342
0.0762576
0.0746539
0.0737725
0.07333
0.0731765
0.0732293
0.0734919
0.0739373
0.0744386
0.0749556
0.0755248
0.0762043
0.0770234
0.0779568
0.0789543
0.0799509
0.0808808
0.0816835
0.0822975
0.0826321
0.0824786
0.0809975
0.562472
0.562415
0.562147
0.560877
0.556831
0.548319
0.535369
0.519428
0.502094
0.484495
0.467276
0.450759
0.43509
0.420317
0.40644
0.393429
0.381245
0.369842
0.359171
0.349184
0.33983
0.331065
0.322842
0.315119
0.307855
0.301013
0.294555
0.28845
0.282666
0.277175
0.27195
0.266968
0.262208
0.257649
0.253275
0.249067
0.245011
0.241092
0.237298
0.233618
0.230042
0.22656
0.223165
0.21985
0.216608
0.213434
0.210323
0.207272
0.204277
0.201335
0.198446
0.195608
0.192821
0.190084
0.187398
0.184764
0.182181
0.179652
0.177177
0.174756
0.172391
0.170082
0.167827
0.165628
0.163482
0.161389
0.159348
0.157356
0.155411
0.153512
0.151656
0.149842
0.148068
0.146331
0.144629
0.142961
0.141326
0.139722
0.138147
0.136601
0.135081
0.133587
0.132118
0.130672
0.12925
0.12785
0.126472
0.125115
0.12378
0.122466
0.121174
0.119902
0.11865
0.117419
0.116209
0.11502
0.113851
0.112704
0.111577
0.110471
0.109385
0.10832
0.107274
0.106248
0.105238
0.104245
0.103265
0.102296
0.101333
0.100373
0.099409
0.0984333
0.0974366
0.0964072
0.0953311
0.0941926
0.0929766
0.0916742
0.0902974
0.0888963
0.0874884
0.0860358
0.0844518
0.0826073
0.0803294
0.0774063
0.0736339
0.068877
0.0644996
0.0631325
0.0624484
0.0621094
0.0619915
0.0621759
0.0627288
0.0636895
0.0646752
0.0656016
0.0665839
0.0677758
0.0692672
0.0710037
0.0728972
0.0748334
0.0766929
0.0783752
0.0797964
0.0808579
0.0813516
0.0804404
0.562039
0.561596
0.560315
0.556961
0.550078
0.539151
0.524984
0.508909
0.49207
0.475222
0.458802
0.44304
0.428045
0.413862
0.400494
0.387923
0.37612
0.365047
0.354666
0.344933
0.335807
0.327246
0.319209
0.311656
0.30455
0.297854
0.291534
0.285558
0.279896
0.274519
0.269404
0.264525
0.259863
0.255398
0.251114
0.246992
0.243018
0.239178
0.23546
0.231854
0.228349
0.224936
0.221606
0.218354
0.215171
0.212053
0.208994
0.205991
0.203039
0.200137
0.197284
0.194478
0.191719
0.189007
0.186342
0.183726
0.18116
0.178645
0.176182
0.173772
0.171418
0.169118
0.166874
0.164684
0.162549
0.160467
0.158437
0.156456
0.154523
0.152636
0.150793
0.148992
0.14723
0.145505
0.143815
0.14216
0.140536
0.138944
0.13738
0.135844
0.134334
0.13285
0.13139
0.129952
0.128537
0.127143
0.125771
0.124418
0.123086
0.121774
0.120481
0.119208
0.117954
0.116719
0.115503
0.114305
0.113126
0.111966
0.110824
0.1097
0.108593
0.107502
0.106427
0.105365
0.104315
0.103273
0.102237
0.101201
0.10016
0.0991063
0.0980293
0.0969161
0.095749
0.0945044
0.0931507
0.0916478
0.0899497
0.0880174
0.0858911
0.0838139
0.0818597
0.0799568
0.077961
0.0756854
0.0729018
0.0693394
0.0647271
0.0585642
0.0538186
0.0536584
0.0532385
0.053047
0.0529351
0.0530774
0.0536529
0.0550585
0.0563473
0.0573509
0.0583715
0.0597243
0.0616404
0.0640071
0.0666957
0.069558
0.0723826
0.0749922
0.0772611
0.0790758
0.0802266
0.0798792
0.559553
0.558025
0.554797
0.548823
0.539506
0.527138
0.512633
0.496974
0.480921
0.464972
0.449434
0.434479
0.4202
0.406641
0.393813
0.381711
0.370315
0.359599
0.349531
0.340076
0.331199
0.322863
0.315031
0.307669
0.30074
0.29421
0.288047
0.28222
0.276698
0.271456
0.266467
0.261709
0.257162
0.252807
0.248627
0.244605
0.240728
0.236981
0.233355
0.229837
0.226417
0.223086
0.219836
0.216659
0.213548
0.210496
0.2075
0.204553
0.201654
0.1988
0.195988
0.193219
0.190492
0.187808
0.185167
0.182572
0.180023
0.177522
0.175072
0.172675
0.170331
0.168042
0.165808
0.163629
0.161505
0.159435
0.157417
0.15545
0.153531
0.151659
0.14983
0.148043
0.146296
0.144585
0.142911
0.141269
0.13966
0.138081
0.136531
0.135007
0.13351
0.132037
0.130588
0.12916
0.127754
0.126368
0.125001
0.123654
0.122325
0.121014
0.119722
0.118448
0.117192
0.115952
0.114729
0.113523
0.112332
0.111158
0.109999
0.108855
0.107723
0.106605
0.105496
0.104395
0.103299
0.102205
0.101105
0.0999952
0.0988653
0.0977041
0.096496
0.0952191
0.093843
0.0923235
0.090598
0.0885788
0.0861502
0.0831794
0.0797701
0.0768441
0.0744244
0.072281
0.070163
0.0678276
0.0650252
0.061489
0.0569677
0.0504172
0.0482316
0.0441197
0.0405176
0.0364723
0.0337988
0.0352088
0.0404387
0.0519721
0.0527897
0.0531383
0.0535269
0.0543008
0.0559681
0.0583591
0.0612982
0.0647889
0.0684187
0.0718531
0.0748937
0.0774015
0.0791597
0.0793312
0.552643
0.549656
0.544438
0.536507
0.525906
0.513163
0.499015
0.484131
0.469022
0.454037
0.439403
0.425265
0.411708
0.39878
0.386503
0.37488
0.363904
0.353556
0.343813
0.334649
0.326035
0.317938
0.310327
0.30317
0.296434
0.290087
0.284099
0.278437
0.273074
0.267982
0.263137
0.258516
0.254099
0.249868
0.245807
0.2419
0.238133
0.234495
0.230974
0.227559
0.22424
0.221006
0.217849
0.214761
0.211734
0.208761
0.205838
0.202959
0.200121
0.197322
0.194559
0.191833
0.189142
0.186489
0.183875
0.181301
0.17877
0.176285
0.173848
0.171462
0.169129
0.16685
0.164626
0.162458
0.160346
0.158289
0.156285
0.154333
0.15243
0.150574
0.148763
0.146993
0.145262
0.143569
0.141911
0.140286
0.138693
0.13713
0.135596
0.134088
0.132605
0.131146
0.12971
0.128294
0.126898
0.125521
0.124162
0.12282
0.121496
0.120188
0.118896
0.117622
0.116363
0.115118
0.113888
0.112672
0.11147
0.11028
0.109103
0.107936
0.106779
0.105629
0.104485
0.103342
0.102197
0.101044
0.0998756
0.0986834
0.0974548
0.0961729
0.0948144
0.0933454
0.0917166
0.0898547
0.0876501
0.0849402
0.081477
0.0768869
0.0713564
0.0677887
0.0653362
0.0633915
0.061583
0.059651
0.0573781
0.0545672
0.0510547
0.0450181
0.0326328
0.00079292
3.10678e-05
5.55894e-07
0.000557404
0.013386
0.0131049
0.0136331
0.0177927
0.0220445
0.0297858
0.0391327
0.0531672
0.0550477
0.0574038
0.0611619
0.0653174
0.0693151
0.0729118
0.0759531
0.0782052
0.0788132
0.540676
0.536579
0.530164
0.521387
0.51055
0.498156
0.484751
0.470805
0.456685
0.442656
0.428905
0.415558
0.402703
0.390391
0.378654
0.367506
0.356946
0.346967
0.337553
0.328684
0.320338
0.312487
0.305105
0.298164
0.291633
0.285483
0.279683
0.274204
0.269015
0.264091
0.259405
0.254936
0.250663
0.24657
0.24264
0.238861
0.235219
0.231704
0.228304
0.225008
0.221804
0.218683
0.215635
0.212651
0.209722
0.206842
0.204005
0.201205
0.198438
0.195702
0.192996
0.190317
0.187668
0.18505
0.182464
0.179913
0.177401
0.174931
0.172507
0.170131
0.167807
0.165538
0.163324
0.161166
0.159066
0.157022
0.155034
0.153098
0.151214
0.149377
0.147585
0.145835
0.144124
0.142451
0.140812
0.139206
0.137632
0.136087
0.134571
0.133081
0.131616
0.130173
0.128752
0.12735
0.125967
0.124601
0.123251
0.121916
0.120597
0.119292
0.118002
0.116726
0.115464
0.114215
0.112978
0.111752
0.110537
0.109331
0.108135
0.106945
0.10576
0.104578
0.103395
0.102207
0.101009
0.0997931
0.0985505
0.0972689
0.0959313
0.0945144
0.0929846
0.0912928
0.0893659
0.0870945
0.084313
0.0807637
0.0759987
0.0691695
0.0604828
0.0572801
0.0554384
0.0541024
0.0529149
0.0516836
0.0502648
0.0485379
0.0463807
0.0406457
0.0249163
0.00551449
0.000244532
6.47005e-06
3.37623e-06
0.00024065
0.000344281
0.000490103
0.000792256
0.00100814
0.0141071
0.0175018
0.0360051
0.046824
0.0565067
0.0599544
0.063755
0.0677
0.0714705
0.0748068
0.077398
0.0783361
0.52518
0.520574
0.513787
0.504985
0.494524
0.482826
0.470306
0.457319
0.444151
0.431021
0.418093
0.405488
0.393292
0.381564
0.370342
0.359649
0.349493
0.339872
0.33078
0.322202
0.31412
0.306516
0.299365
0.292644
0.286326
0.280382
0.274784
0.269501
0.264503
0.259761
0.255251
0.250947
0.246832
0.242889
0.239104
0.235466
0.231963
0.228586
0.225323
0.222162
0.219092
0.216101
0.213179
0.210315
0.207501
0.204728
0.201991
0.199283
0.1966
0.193938
0.191295
0.188672
0.186069
0.183488
0.180933
0.178407
0.175914
0.173458
0.171045
0.168678
0.166362
0.1641
0.161894
0.159746
0.157657
0.155627
0.153655
0.151738
0.149874
0.148059
0.146289
0.144562
0.142874
0.141222
0.139605
0.138021
0.136468
0.134945
0.13345
0.131981
0.130535
0.129112
0.127709
0.126324
0.124956
0.123603
0.122265
0.120939
0.119626
0.118326
0.117037
0.11576
0.114496
0.113243
0.111998
0.110762
0.109533
0.108311
0.107094
0.10588
0.104666
0.103449
0.102226
0.10099
0.0997347
0.0984517
0.0971286
0.0957494
0.0942917
0.0927239
0.0910002
0.0890538
0.0867865
0.0840533
0.0806375
0.0761921
0.070048
0.0607481
0.0487099
0.0468976
0.0456659
0.0449035
0.0443816
0.0439897
0.043554
0.0430439
0.0423727
0.0356333
0.0155204
0.00223446
0.000110593
3.14084e-06
9.44491e-08
4.14725e-06
7.87368e-06
1.43113e-05
2.43609e-05
2.83662e-05
0.000688885
0.000898289
0.0036138
0.0442553
0.0563228
0.0594992
0.0629903
0.0667435
0.0704931
0.0739481
0.0767394
0.0779027
0.508153
0.503473
0.496805
0.488383
0.478542
0.467633
0.455988
0.443895
0.431592
0.419273
0.407088
0.395155
0.383561
0.37237
0.361626
0.351358
0.34158
0.332298
0.323511
0.315209
0.307382
0.300015
0.29309
0.286587
0.280483
0.274753
0.269367
0.264294
0.259502
0.254961
0.250641
0.246517
0.242572
0.238791
0.235163
0.231679
0.22833
0.225107
0.221998
0.218991
0.216073
0.213232
0.210455
0.207732
0.205051
0.202405
0.199784
0.197184
0.194597
0.192021
0.189453
0.186893
0.184342
0.181803
0.17928
0.176779
0.174304
0.171862
0.169458
0.167097
0.164786
0.162527
0.160326
0.158185
0.156106
0.15409
0.152135
0.150239
0.148399
0.146609
0.144865
0.143164
0.141501
0.139874
0.138282
0.136722
0.135193
0.133694
0.132223
0.130778
0.129357
0.127957
0.126575
0.125211
0.123861
0.122524
0.121199
0.119884
0.118579
0.117284
0.115998
0.114721
0.113457
0.112199
0.110947
0.1097
0.108458
0.107218
0.105979
0.104738
0.103493
0.102239
0.100972
0.0996843
0.0983684
0.0970126
0.095602
0.0941157
0.0925247
0.0907878
0.0888462
0.0866157
0.0839762
0.0807566
0.0767083
0.0714308
0.0641036
0.0529875
0.0405668
0.0293736
0.0222394
0.0134939
0.00505157
0.00161527
0.0030075
0.00755942
0.0239932
0.0214663
0.00544872
0.000213147
7.52902e-06
2.05021e-07
4.65172e-09
7.7001e-08
1.79e-07
3.85784e-07
6.40168e-07
7.08331e-07
1.93248e-05
2.72679e-05
0.000199457
0.0533809
0.056394
0.0592656
0.0626781
0.0661979
0.0698449
0.0733164
0.076207
0.0775082
0.491002
0.486464
0.480118
0.472203
0.463014
0.45285
0.441989
0.430677
0.419125
0.407509
0.395973
0.38463
0.37357
0.36286
0.352547
0.342663
0.33323
0.324257
0.315748
0.307699
0.300106
0.292957
0.286243
0.279948
0.274054
0.268538
0.263372
0.258523
0.253956
0.249633
0.24552
0.241593
0.237831
0.234224
0.230764
0.227447
0.224266
0.221213
0.218278
0.215447
0.212705
0.210038
0.20743
0.20487
0.202345
0.199847
0.197364
0.19489
0.192418
0.189943
0.187461
0.184973
0.182481
0.179989
0.177502
0.175026
0.172569
0.170137
0.167739
0.16538
0.163068
0.160808
0.158607
0.156469
0.15439
0.152377
0.150433
0.14856
0.146745
0.144984
0.143271
0.1416
0.139967
0.13837
0.136806
0.135274
0.133774
0.132304
0.130862
0.129447
0.128055
0.126683
0.12533
0.123991
0.122664
0.121347
0.120038
0.118737
0.117443
0.116154
0.114872
0.113597
0.112327
0.111066
0.109807
0.10855
0.107293
0.106035
0.104773
0.103505
0.102227
0.100934
0.0996198
0.0982774
0.0968958
0.0954611
0.0939542
0.0923488
0.0906086
0.0886824
0.0864998
0.0839627
0.0809374
0.07724
0.0726098
0.0666122
0.0582852
0.0457729
0.0349085
0.017016
0.00290329
6.2354e-05
5.53739e-07
5.54311e-06
0.000229314
0.000380872
0.000230035
0.00150198
0.000350298
1.81456e-05
5.8671e-07
1.44469e-08
2.9544e-10
1.54139e-09
4.34184e-09
1.05044e-08
1.52309e-08
1.43416e-08
3.4908e-07
4.02736e-07
0.00420692
0.0536954
0.0563959
0.059091
0.0624002
0.0658471
0.0693963
0.0728421
0.0757695
0.0771442
0.474489
0.470168
0.464183
0.456756
0.44815
0.438621
0.428415
0.41775
0.40682
0.395791
0.384799
0.373958
0.363356
0.353062
0.343124
0.333578
0.324447
0.315744
0.307476
0.299645
0.292252
0.285292
0.27876
0.27265
0.266949
0.26164
0.256698
0.252088
0.247766
0.243685
0.239804
0.236091
0.232529
0.229108
0.225828
0.222689
0.219691
0.216828
0.21409
0.211461
0.208924
0.206459
0.20405
0.201682
0.199342
0.197018
0.194701
0.192378
0.190043
0.187687
0.185308
0.182905
0.180481
0.178041
0.175591
0.173141
0.1707
0.168275
0.165877
0.163514
0.161195
0.158927
0.156719
0.154556
0.152459
0.150439
0.1485
0.146646
0.144865
0.143141
0.141466
0.139832
0.138234
0.13667
0.135138
0.133638
0.13217
0.130734
0.129326
0.127946
0.12659
0.125255
0.123936
0.12263
0.121333
0.120042
0.118755
0.117471
0.116191
0.114912
0.113636
0.112363
0.111092
0.109829
0.108564
0.107296
0.106025
0.104748
0.103463
0.102166
0.100853
0.0995182
0.0981544
0.0967518
0.0952975
0.0937741
0.0921581
0.0904176
0.0885089
0.0863734
0.0839323
0.081081
0.077682
0.0735522
0.0684289
0.061837
0.0526211
0.0388992
0.0310036
0.00745086
8.41738e-05
6.96371e-07
6.02552e-09
1.03619e-08
2.10167e-06
6.02546e-06
6.5509e-06
5.16394e-05
1.54195e-05
7.00197e-07
2.24472e-08
5.77768e-10
1.29245e-11
3.24416e-11
1.21505e-10
3.21192e-10
3.32232e-10
2.43202e-10
4.35825e-09
0.0001675
0.0222615
0.0536357
0.0563108
0.0589433
0.0621546
0.065548
0.0690641
0.07247
0.075398
0.0768018
0.458965
0.454862
0.449199
0.44218
0.434041
0.425012
0.415314
0.405153
0.394709
0.384143
0.373588
0.363155
0.35293
0.342981
0.333357
0.324093
0.315213
0.306731
0.298656
0.290995
0.283752
0.27693
0.270532
0.264562
0.259019
0.253896
0.249174
0.244816
0.240769
0.236967
0.233354
0.229887
0.226544
0.223323
0.220231
0.217281
0.214481
0.211829
0.209316
0.206924
0.204628
0.202406
0.200234
0.198096
0.195977
0.193865
0.191747
0.18961
0.187441
0.185232
0.182976
0.180674
0.178329
0.175948
0.17354
0.171116
0.168688
0.166266
0.163861
0.161486
0.159149
0.156862
0.154604
0.152404
0.150279
0.148242
0.146303
0.144466
0.142726
0.141048
0.13942
0.137831
0.136274
0.134748
0.133251
0.131786
0.130354
0.128955
0.127587
0.12625
0.124938
0.123647
0.122372
0.121107
0.119848
0.11859
0.117331
0.11607
0.114807
0.113542
0.112275
0.111006
0.109737
0.108469
0.1072
0.105925
0.10464
0.103344
0.102034
0.100706
0.0993537
0.0979715
0.0965499
0.0950771
0.0935374
0.0919099
0.0901668
0.0882716
0.086176
0.0838171
0.0811144
0.077965
0.0742374
0.069758
0.0642635
0.0572128
0.0471531
0.0320344
0.0276052
0.00248967
5.63968e-05
8.97512e-07
9.82696e-09
1.21781e-10
1.79259e-08
7.66061e-08
1.28163e-07
1.13262e-06
3.57703e-07
1.70039e-08
5.59957e-10
1.52402e-11
3.82039e-13
6.44209e-13
4.40527e-12
4.21978e-11
1.4996e-09
1.13876e-07
1.08922e-05
0.00110128
0.0303323
0.0535353
0.0562104
0.0588194
0.0619619
0.0652921
0.0687627
0.0721521
0.0750694
0.0764734
0.444565
0.440647
0.435234
0.428517
0.420712
0.412034
0.402693
0.392885
0.382788
0.372558
0.362329
0.352206
0.342274
0.332597
0.32322
0.314177
0.305487
0.297165
0.28922
0.281661
0.274494
0.267731
0.261386
0.255475
0.24989
0.244756
0.240231
0.236151
0.232442
0.229005
0.225742
0.222588
0.219514
0.216522
0.213638
0.210894
0.208316
0.205913
0.203674
0.201577
0.199589
0.197675
0.195803
0.193956
0.192116
0.190272
0.188408
0.186508
0.184553
0.182529
0.18043
0.178253
0.176004
0.173692
0.171331
0.168934
0.166516
0.164091
0.161672
0.159272
0.156904
0.154558
0.152236
0.149968
0.147775
0.145682
0.143716
0.141893
0.140204
0.138588
0.137023
0.135493
0.133987
0.132506
0.13105
0.129625
0.128234
0.12688
0.125562
0.124277
0.123022
0.121791
0.120575
0.119367
0.118159
0.116946
0.115725
0.114495
0.113255
0.112008
0.110754
0.109494
0.108228
0.106955
0.105684
0.1044
0.103101
0.101784
0.100445
0.09908
0.0976819
0.0962424
0.0947506
0.0931923
0.0915493
0.089798
0.0879084
0.0858417
0.0835489
0.0809689
0.0780253
0.0746242
0.0706467
0.0659322
0.0602164
0.0528793
0.0421648
0.0261616
0.00960089
0.000815449
1.38745e-05
1.85047e-07
1.94894e-09
1.69643e-11
1.35166e-10
7.79248e-10
1.78262e-09
1.68105e-08
5.33966e-09
2.79233e-10
9.62552e-12
2.70118e-13
6.24555e-15
4.8199e-15
1.12321e-13
3.20201e-11
4.03776e-09
3.06802e-07
2.06323e-05
0.00115727
0.0378991
0.0535181
0.0561532
0.0587307
0.061807
0.0650768
0.0684976
0.0718528
0.0747505
0.0761496
0.431318
0.427537
0.422291
0.415759
0.408147
0.399664
0.390519
0.380909
0.371014
0.360992
0.350974
0.341063
0.331339
0.321857
0.312658
0.303766
0.295197
0.286959
0.27906
0.271505
0.264305
0.257475
0.250835
0.244111
0.237609
0.231585
0.226438
0.222798
0.219717
0.217009
0.214461
0.211939
0.209385
0.206806
0.204265
0.201849
0.199629
0.197636
0.195863
0.194275
0.192818
0.191427
0.190054
0.188673
0.187273
0.185842
0.184366
0.182822
0.181185
0.179434
0.177558
0.175557
0.173439
0.17122
0.168919
0.166555
0.164147
0.161713
0.15927
0.156832
0.154413
0.151969
0.149538
0.147137
0.144791
0.142547
0.140475
0.138638
0.137021
0.135497
0.134027
0.132582
0.131148
0.129724
0.128317
0.126941
0.125602
0.124305
0.123052
0.121841
0.120668
0.119524
0.118397
0.117275
0.116145
0.115
0.113835
0.11265
0.111447
0.110227
0.108993
0.107747
0.10649
0.105221
0.103949
0.102659
0.101345
0.100004
0.09863
0.0972181
0.0957607
0.094248
0.0926674
0.0910032
0.0892362
0.0873423
0.085292
0.0830488
0.0805679
0.0777943
0.0746607
0.0710849
0.0669617
0.0621419
0.0563537
0.0488905
0.0377673
0.0220601
0.00447916
0.000421357
7.37983e-06
9.92049e-08
1.06788e-09
9.62014e-12
9.59344e-13
6.38887e-12
1.83592e-11
1.7932e-10
5.67828e-11
3.2695e-12
1.18751e-13
2.60681e-15
0
0
2.9529e-16
4.28597e-12
9.66146e-09
4.22057e-07
1.85983e-05
0.000633942
0.0504087
0.0537162
0.0561644
0.058672
0.0616729
0.0648817
0.0682506
0.0715656
0.0744347
0.0758258
0.419205
0.415509
0.410338
0.403867
0.396299
0.387846
0.378725
0.369147
0.359303
0.349355
0.339435
0.329639
0.320037
0.310674
0.301577
0.29276
0.284227
0.275978
0.268009
0.26032
0.252914
0.24543
0.2374
0.22912
0.22054
0.212236
0.204805
0.201092
0.199038
0.197713
0.196546
0.195232
0.193615
0.191698
0.189621
0.187615
0.185894
0.184539
0.183553
0.182882
0.182421
0.182018
0.181571
0.18104
0.180423
0.179723
0.178926
0.178004
0.176914
0.175624
0.174118
0.172401
0.170491
0.168416
0.166207
0.163893
0.161503
0.15906
0.156584
0.154092
0.151574
0.148991
0.14637
0.143713
0.14104
0.138416
0.13602
0.134102
0.132594
0.131232
0.129931
0.128635
0.127316
0.125974
0.124631
0.123315
0.122044
0.120827
0.119668
0.118566
0.11752
0.116517
0.11554
0.114563
0.113566
0.112535
0.111465
0.110355
0.109211
0.108037
0.106839
0.105619
0.104381
0.103122
0.101842
0.100552
0.0992254
0.0978575
0.0964436
0.0949769
0.093449
0.0918489
0.0901635
0.0883773
0.0864724
0.084428
0.08222
0.079819
0.0771877
0.0742799
0.0710378
0.0673887
0.0632364
0.0584364
0.0526984
0.0452207
0.0338431
0.0191878
0.00203183
9.11994e-05
1.70757e-06
2.25931e-08
2.41712e-10
2.21959e-12
2.29914e-14
4.31441e-14
1.46042e-13
1.44538e-12
4.55747e-13
2.84209e-14
3.17516e-18
0
0
0
0
5.23546e-13
1.76513e-08
1.05972e-06
5.0777e-05
0.00204282
0.0508076
0.0537803
0.0561326
0.0585951
0.0615326
0.0646862
0.0680061
0.0712806
0.0741188
0.0755012
0.408167
0.404488
0.399294
0.392765
0.385116
0.376572
0.367213
0.357471
0.347513
0.337503
0.327568
0.317794
0.308233
0.298912
0.289839
0.281009
0.27241
0.26402
0.255818
0.247779
0.239633
0.230141
0.219538
0.207907
0.195097
0.183322
0.17148
0.167525
0.166975
0.168208
0.169543
0.170351
0.170242
0.169145
0.167141
0.164082
0.162833
0.16233
0.162588
0.163548
0.165005
0.166529
0.167849
0.168896
0.169709
0.170338
0.170793
0.171025
0.170954
0.170513
0.169677
0.168464
0.166917
0.165089
0.163038
0.160815
0.158463
0.156017
0.153503
0.150938
0.148263
0.145478
0.142558
0.139468
0.136174
0.132732
0.12953
0.127459
0.126134
0.125089
0.124108
0.123084
0.121955
0.120722
0.119439
0.118181
0.116985
0.115866
0.114831
0.113887
0.113034
0.112264
0.111545
0.110824
0.110061
0.10923
0.108321
0.107339
0.106294
0.105198
0.10406
0.102889
0.101687
0.100454
0.0991869
0.0979006
0.0965706
0.09518
0.0937241
0.0921965
0.0905891
0.0888916
0.0870921
0.0851775
0.0831348
0.0809516
0.0786145
0.0761047
0.0733941
0.0704433
0.0671982
0.0635887
0.0595205
0.0548441
0.0492391
0.0417909
0.0301788
0.0172158
0.000963502
1.08538e-05
1.30162e-07
1.51062e-09
1.56578e-11
1.45711e-13
8.57294e-17
0
3.17516e-18
8.62692e-15
1.90192e-15
0
0
0
0
0
0
3.356e-10
2.01545e-08
1.75675e-06
0.0001644
0.0126528
0.0507591
0.0537072
0.0560348
0.0584769
0.0613664
0.0644741
0.0677513
0.0709899
0.0738007
0.0751754
0.398119
0.394359
0.389003
0.382242
0.374314
0.365476
0.355886
0.345936
0.335855
0.325373
0.315166
0.305323
0.295728
0.286374
0.277241
0.268295
0.259492
0.250782
0.242098
0.233365
0.222577
0.209498
0.193929
0.178332
0.161357
0.149732
0.136428
0.134049
0.13433
0.138218
0.141874
0.144592
0.145675
0.144743
0.140304
0.133962
0.131372
0.131215
0.13246
0.135219
0.139381
0.143749
0.147594
0.150815
0.153603
0.156154
0.158541
0.16068
0.162361
0.163401
0.16373
0.163381
0.162443
0.161026
0.159237
0.157165
0.154885
0.15245
0.149894
0.147236
0.144388
0.141333
0.138001
0.134286
0.130031
0.12521
0.120542
0.118523
0.117503
0.117052
0.116615
0.116026
0.115157
0.113998
0.112442
0.111037
0.10989
0.108861
0.107957
0.107197
0.106603
0.106184
0.105898
0.105611
0.105245
0.104746
0.104098
0.103316
0.102423
0.101445
0.100402
0.0993097
0.0981724
0.0969901
0.0957575
0.094469
0.0931532
0.0917525
0.0902642
0.0886841
0.0870055
0.0852197
0.0833174
0.0812902
0.0791338
0.0768494
0.0744417
0.0719046
0.069216
0.0663365
0.0632047
0.0597438
0.0558545
0.0513765
0.045945
0.0384898
0.0264518
0.0159145
0.000690751
9.31363e-06
1.08702e-07
1.14944e-09
1.09366e-11
9.44516e-14
3.17516e-18
0
0
0
0
0
0
0
0
0
0
3.0231e-08
5.4545e-07
5.03686e-05
0.00201039
0.025885
0.0506469
0.0535766
0.0558884
0.0583137
0.0611634
0.0642326
0.0674755
0.0706871
0.0734787
0.0748486
0.389004
0.385055
0.37938
0.372184
0.363738
0.354356
0.344306
0.333966
0.323593
0.313051
0.302766
0.292026
0.282257
0.272787
0.263494
0.254296
0.245099
0.235793
0.226238
0.214966
0.20013
0.180595
0.159467
0.144423
0.128154
0.123174
0.11912
0.101192
0.0967841
0.127152
0.129216
0.130985
0.131432
0.129482
0.122021
0.11228
0.10949
0.107756
0.1081
0.11037
0.115669
0.121709
0.126842
0.131041
0.134833
0.138687
0.142827
0.14714
0.151116
0.154227
0.15622
0.157102
0.157024
0.156177
0.154743
0.152875
0.150691
0.148272
0.145669
0.1429
0.139864
0.136521
0.132752
0.128356
0.122975
0.116595
0.110677
0.109243
0.108565
0.108959
0.109115
0.108991
0.108328
0.10702
0.104085
0.102241
0.100949
0.0999477
0.0991042
0.0984599
0.0980858
0.098075
0.0984389
0.0987965
0.0990194
0.0989979
0.0987051
0.098177
0.0974699
0.0966352
0.0957118
0.0947243
0.0936836
0.0925863
0.091419
0.0901708
0.0888552
0.0874674
0.0859653
0.0843503
0.0826206
0.0807717
0.0787983
0.0766974
0.0744733
0.0721439
0.0697454
0.0672822
0.0647317
0.0620459
0.0591362
0.0559097
0.0522635
0.0480305
0.0427836
0.0352153
0.022205
0.0148323
0.000626201
8.99027e-06
1.06948e-07
1.10799e-09
1.01975e-11
8.49515e-14
3.17516e-18
0
0
0
0
0
0
0
0
0
4.5724e-07
5.87835e-06
0.000117625
0.00139629
0.00861667
0.0362084
0.050603
0.0534438
0.055711
0.0581052
0.0609145
0.0639506
0.0671692
0.0703663
0.0731519
0.0745213
0.380755
0.376498
0.370318
0.362427
0.353153
0.342912
0.332124
0.3212
0.310393
0.299658
0.289179
0.278577
0.267987
0.257804
0.248187
0.238535
0.228652
0.218326
0.207272
0.190565
0.16966
0.143811
0.122959
0.115564
0.109799
0.0384983
0.00265261
0.000856743
0.00273383
0.00611213
0.0841966
0.120325
0.121163
0.11806
0.105965
0.100116
0.0716892
0.0210127
0.0180914
0.0703784
0.107208
0.111472
0.114662
0.117117
0.119595
0.122753
0.127086
0.132721
0.138837
0.144139
0.147954
0.150189
0.151044
0.1508
0.149727
0.148047
0.145934
0.143508
0.14084
0.137949
0.13476
0.13121
0.127137
0.122233
0.115876
0.108679
0.104307
0.0943315
0.0879052
0.102936
0.103303
0.103481
0.102849
0.100528
0.0945687
0.091427
0.090106
0.089075
0.0876142
0.0869366
0.0866232
0.0870017
0.0885361
0.0899687
0.0911393
0.0918384
0.0920165
0.0917857
0.0912766
0.0905903
0.0897958
0.0889364
0.0880313
0.0870701
0.0860137
0.0848393
0.0835417
0.0821847
0.0807053
0.0791116
0.0774046
0.0755795
0.0736275
0.0715398
0.0693157
0.066985
0.0646661
0.062367
0.0600584
0.0576788
0.0550683
0.0521159
0.0487373
0.0447779
0.0397342
0.0320098
0.0178429
0.00156452
4.06698e-05
5.35965e-07
6.04199e-09
5.95326e-11
5.24315e-13
3.68954e-15
0
0
0
0
0
0
0
0
0
0
4.40558e-07
1.21662e-05
0.000292836
0.00265832
0.0139307
0.0478447
0.0507514
0.0533245
0.055497
0.0578391
0.0606053
0.0636143
0.0668352
0.0700219
0.0728094
0.07419
0.3733
0.368603
0.361683
0.352743
0.342196
0.330661
0.318796
0.307076
0.295712
0.284673
0.27397
0.263385
0.252837
0.241691
0.230767
0.220309
0.209274
0.197194
0.180359
0.154112
0.131317
0.107954
0.101159
0.0491841
0.00334739
0.000390124
3.46693e-05
9.69216e-06
2.65669e-05
5.99418e-05
0.00107886
0.0692898
0.107632
0.103703
0.0897434
0.014522
0.000207288
9.63564e-05
0.000141997
0.001351
0.0782739
0.105362
0.106628
0.107081
0.107735
0.109295
0.112627
0.118798
0.127227
0.134723
0.140175
0.14355
0.145153
0.145357
0.14451
0.1429
0.140758
0.138252
0.135489
0.132487
0.12924
0.125668
0.121585
0.116536
0.10949
0.102227
0.0577445
0.00113812
0.000659073
0.0030089
0.0647479
0.0969153
0.0969506
0.0940512
0.0876626
0.0488548
0.00259161
0.00546821
0.00051348
8.56027e-05
0.00238233
0.0541003
0.0835981
0.0845902
0.0856295
0.0863057
0.0863792
0.0860292
0.0854258
0.0846815
0.0838701
0.0830428
0.0822275
0.0814037
0.0804619
0.0793626
0.0781108
0.0767363
0.0752938
0.0737512
0.0721071
0.0703476
0.0684504
0.066382
0.0641036
0.0616259
0.0593755
0.0572743
0.0552736
0.0533032
0.0510078
0.0482965
0.0451653
0.0414977
0.0366623
0.0287751
0.0142395
0.000718435
1.41234e-05
1.75558e-07
1.77794e-09
1.5284e-11
1.16151e-13
3.17516e-18
0
0
0
0
0
0
0
0
0
0
2.11962e-07
6.59954e-06
0.000310636
0.00217302
0.0123463
0.0480148
0.0506887
0.0531014
0.0551973
0.0574849
0.060255
0.0632308
0.0664337
0.0696256
0.0724372
0.0738527
0.366565