/*--------------------------------*- C++ -*----------------------------------*\
| =========                 |                                                 |
| \\      /  F ield         | OpenFOAM: The Open Source CFD Toolbox           |
|  \\    /   O peration     | Version:  2.1.0                                 |
|   \\  /    A nd           | Web:      www.OpenFOAM.org                      |
|    \\/     M anipulation  |                                                 |
\*---------------------------------------------------------------------------*/
FoamFile
{
    version     2.0;
    format      ascii;
    class       surfaceScalarField;
    location    "52195";
    object      phi_o;
}
// * * * * * * * * * * * * * * * * * * * * * * * * * * * * * * * * * * * * * //

dimensions      [1 -2 -2 0 0 0 0];

internalField   nonuniform List<scalar> 
29750
(
18.5934
18.6169
11.2278
7.36566
7.75946
3.46832
5.85918
1.90067
4.69288
1.17126
3.92832
0.787527
3.41493
0.567257
3.06483
0.432402
2.81862
0.34416
2.63858
0.282237
2.50258
0.236062
2.39782
0.200004
2.3166
0.170901
2.25395
0.146845
2.20645
0.126618
2.17158
0.109401
2.1474
0.0946252
2.13232
0.0818839
2.12501
0.0708784
2.1243
0.0613871
2.12916
0.0532382
2.13864
0.0462956
2.15188
0.0404462
2.16808
0.0355909
2.18652
0.0316384
2.20652
0.0285016
2.2275
0.0260939
2.24893
0.0243302
2.27034
0.0231291
2.29135
0.0224142
2.31163
0.0221168
2.33088
0.022178
2.34887
0.0225487
2.3654
0.0231864
2.38029
0.0240561
2.3934
0.0251246
2.40462
0.0263584
2.41387
0.027722
2.42111
0.0291735
2.42634
0.0306655
2.42961
0.0321452
2.43101
0.0335566
2.43069
0.0348435
2.42884
0.035952
2.42573
0.0368313
2.42163
0.0374371
2.41687
0.0377323
2.41182
0.0376885
2.40683
0.0372879
2.40227
0.0365252
2.39853
0.0354073
2.39594
0.0339527
2.39481
0.0321927
2.39543
0.0301693
2.39801
0.0279335
2.40271
0.0255447
2.40964
0.0230672
2.41883
0.0205682
2.43023
0.0181144
2.44375
0.015769
2.45923
0.0135891
2.47645
0.0116257
2.49517
0.00991921
2.51512
0.00849759
2.53599
0.00737546
2.55749
0.0065524
2.57935
0.00601543
2.60131
0.00574053
2.62315
0.00569432
2.64468
0.00583828
2.66576
0.00613363
2.68628
0.00654241
2.70617
0.00702895
2.72537
0.00756316
2.74389
0.00812001
2.7617
0.00867654
2.77886
0.00920978
2.7954
0.0096972
2.81139
0.0101144
2.82695
0.0104336
2.84219
0.0106264
2.85728
0.0106633
2.87241
0.0105136
2.8878
0.0101491
2.90369
0.00954207
2.92035
0.00866759
2.93806
0.00750624
2.95713
0.00604402
2.97789
0.00426462
3.00066
0.00215393
3.02579
-0.000301934
3.05365
-0.00311901
3.08463
-0.00631891
3.11914
-0.00992924
3.15762
-0.0139862
3.20058
-0.0185341
3.24856
-0.0236284
3.30217
-0.0293364
3.36213
-0.0357386
3.42922
-0.0429333
3.50434
-0.0510331
3.58856
-0.0601712
3.68305
-0.0705003
3.78918
-0.0821922
3.90852
-0.0954331
4.0428
-0.110424
4.19399
-0.127366
4.36423
-0.146443
4.55578
-0.167795
4.77099
-0.191468
5.01206
-0.217356
5.28086
-0.245107
5.57857
-0.274024
5.90521
-0.302973
6.25922
-0.330346
6.63709
-0.354204
7.03347
-0.372718
7.44216
-0.385037
7.85829
-0.392463
8.2814
-0.399433
8.7184
-0.413318
9.18473
-0.442643
9.70336
-0.494897
10.3014
-0.574282
11.0039
-0.678637
11.8225
-0.794595
12.7381
-0.891444
13.6814
-0.918907
14.5298
-0.823704
15.1591
-0.604813
15.5524
-0.36898
15.7373
-0.160925
15.7404
0.0206895
15.5719
0.192318
15.2348
0.360946
14.7538
0.504792
14.197
0.580629
13.5897
0.6312
12.9063
0.707246
12.1008
0.829361
11.1419
0.9827
10.0365
1.1293
8.81627
1.24409
7.52824
1.31191
6.21825
1.3339
4.91939
1.32279
3.64888
1.29447
2.41035
1.26255
1.19788
1.23662
1.22236
7.34215
11.2748
7.33043
7.37741
6.1918
4.60701
5.12978
2.96379
4.30914
2.00095
3.70805
1.42077
3.28008
1.05944
2.97659
0.825265
2.7567
0.665308
2.5924
0.549678
2.46652
0.461831
2.36872
0.392445
2.29255
0.33602
2.23372
0.289137
2.18923
0.24956
2.15681
0.215767
2.13466
0.186695
2.12132
0.161576
2.11552
0.139846
2.11616
0.121085
2.12222
0.104965
2.13279
0.0912298
2.14703
0.079661
2.16413
0.0700684
2.18338
0.0622747
2.20411
0.0561065
2.22574
0.051392
2.24773
0.047961
2.26963
0.0456482
2.29106
0.0442995
2.31169
0.0437769
2.33125
0.043961
2.34951
0.0447542
2.36627
0.0460757
2.38136
0.0478575
2.39463
0.0500379
2.40598
0.0525524
2.41532
0.0553304
2.4226
0.0582887
2.42782
0.0613305
2.43102
0.0643486
2.4323
0.0672304
2.4318
0.0698617
2.42972
0.0721322
2.42633
0.0739388
2.42192
0.07519
2.41683
0.0758099
2.41142
0.0757408
2.40606
0.0749468
2.40116
0.0734156
2.39707
0.0711607
2.39418
0.0682205
2.39279
0.0646581
2.39319
0.0605598
2.39562
0.0560305
2.40024
0.0511911
2.40714
0.0461724
2.41637
0.0411097
2.42788
0.0361373
2.44157
0.0313856
2.45726
0.026974
2.47475
0.0230055
2.49375
0.0195637
2.51399
0.0167053
2.53516
0.01446
2.55696
0.012827
2.57908
0.0117782
2.60127
0.0112614
2.6233
0.0112083
2.64498
0.0115387
2.66617
0.012169
2.68677
0.013021
2.7067
0.014025
2.72593
0.0151213
2.74444
0.0162597
2.76224
0.0173957
2.77935
0.0184859
2.79581
0.0194857
2.81171
0.0203473
2.82714
0.0210172
2.84223
0.0214362
2.85714
0.0215432
2.87205
0.0212748
2.88719
0.0205707
2.90281
0.0193772
2.91919
0.017649
2.9366
0.0153449
2.95535
0.0124335
2.97578
0.00888759
2.9982
0.00468246
3.02297
-0.000208904
3.05045
-0.00581928
3.08102
-0.0121905
3.11508
-0.0193755
3.15307
-0.0274435
3.19549
-0.0364824
3.24285
-0.0466008
3.29577
-0.0579331
3.35493
-0.0706382
3.42112
-0.0849093
3.49521
-0.100974
3.57823
-0.119097
3.67136
-0.139582
3.77594
-0.162774
3.89353
-0.189054
4.02586
-0.218832
4.17491
-0.252529
4.34287
-0.290543
4.53211
-0.333195
4.7451
-0.380647
4.98431
-0.432767
5.25194
-0.488959
5.54962
-0.547923
5.87784
-0.607417
6.23536
-0.664091
6.61857
-0.713621
7.02115
-0.751486
7.43474
-0.774794
7.85132
-0.785189
8.26751
-0.791726
8.68907
-0.810931
9.13248
-0.862038
9.62397
-0.962255
10.1971
-1.12302
10.8879
-1.34479
11.7256
-1.60688
12.7106
-1.84991
13.7767
-1.95674
14.7487
-1.76642
15.3949
-1.2229
15.7604
-0.707783
15.9189
-0.294017
15.9121
0.0520919
15.7406
0.388571
15.3787
0.747785
14.8297
1.07882
14.2476
1.18775
13.6657
1.23813
13.0284
1.36962
12.2541
1.6287
11.2885
1.9733
10.1513
2.29148
8.88409
2.53612
7.55023
2.67045
6.20714
2.70151
4.89106
2.66325
3.61697
2.59284
2.38442
2.51932
1.18363
2.46164
2.43047
3.44479
7.83001
4.56003
6.26225
4.54858
4.6189
4.16693
3.34956
3.72896
2.45798
3.34672
1.85084
3.04591
1.43817
2.81663
1.15156
2.64107
0.944849
2.50456
0.789436
2.39713
0.668163
2.31229
0.570623
2.24566
0.490294
2.19414
0.422927
2.15544
0.365659
2.12773
0.316493
2.10954
0.274011
2.09959
0.23718
2.09676
0.205237
2.10004
0.177605
2.10848
0.153837
2.12122
0.133578
2.13743
0.116527
2.15634
0.102415
2.17721
0.0909866
2.1994
0.0819882
2.22231
0.0751634
2.24541
0.0702536
2.26828
0.0670058
2.29053
0.0651819
2.31187
0.0645701
2.33204
0.0649923
2.35083
0.0663032
2.36805
0.0683901
2.38354
0.0711609
2.39715
0.0745308
2.40876
0.0784117
2.41828
0.0827005
2.42564
0.0872718
2.43084
0.0919782
2.4339
0.0966554
2.43493
0.101128
2.43407
0.105219
2.43153
0.108759
2.42758
0.111587
2.42254
0.113561
2.41676
0.114565
2.41062
0.114509
2.40453
0.113335
2.3989
0.111022
2.39413
0.107592
2.39061
0.103102
2.38869
0.0976517
2.38866
0.0913732
2.39078
0.084431
2.39522
0.0770111
2.40208
0.0693147
2.4114
0.0615513
2.42313
0.053931
2.43716
0.0466545
2.4533
0.0399081
2.4713
0.0338537
2.49089
0.0286198
2.51175
0.0242962
2.53353
0.0209277
2.55591
0.0185125
2.57856
0.0170052
2.60121
0.0163197
2.62363
0.0163414
2.64561
0.0169405
2.66702
0.0179846
2.68777
0.019351
2.7078
0.0209334
2.72707
0.0226433
2.74558
0.024409
2.76333
0.0261679
2.78035
0.0278604
2.79668
0.0294235
2.81238
0.0307859
2.82756
0.0318667
2.84234
0.0325748
2.85687
0.0328133
2.87135
0.0324853
2.886
0.0314985
2.90109
0.0297699
2.91688
0.0272269
2.93368
0.0238127
2.95181
0.019482
2.97157
0.0141986
2.99331
0.00792736
3.01736
0.000632818
3.04408
-0.00772949
3.07383
-0.0172166
3.10701
-0.0279051
3.14404
-0.0398956
3.18537
-0.0533147
3.23152
-0.0683227
3.28307
-0.0851144
3.34066
-0.103928
3.40505
-0.125049
3.47708
-0.148813
3.55774
-0.175614
3.64816
-0.205909
3.74966
-0.240218
3.86375
-0.279126
3.99216
-0.32327
4.1369
-0.373322
4.30022
-0.429948
4.48466
-0.493737
4.69298
-0.565092
4.92811
-0.644041
5.19298
-0.729965
5.49012
-0.821208
5.82116
-0.914584
6.18583
-1.00487
6.58071
-1.08456
6.99784
-1.14463
7.42434
-1.17723
7.84478
-1.18146
8.24831
-1.17095
8.63796
-1.17614
9.03226
-1.23167
9.46321
-1.36819
9.97528
-1.60947
10.6258
-1.96865
11.4826
-2.43489
12.6038
-2.93875
13.967
-3.28155
15.2922
-3.04941
15.9101
-1.80609
16.1742
-0.941813
16.265
-0.357542
16.2486
0.0944469
16.0998
0.564158
15.7097
1.1656
14.9386
1.87827
14.298
1.85668
13.7972
1.76697
13.2875
1.90728
12.5987
2.34541
11.6067
2.99321
10.3959
3.52983
9.01841
3.94072
7.58129
4.134
6.16888
4.1397
4.82066
4.03669
3.54345
3.89486
2.32673
3.76056
1.15246
3.66027
3.60742
1.87703
5.95334
2.91668
5.22368
3.27924
4.26035
3.27535
3.36832
3.12182
2.64997
2.93406
2.10687
2.75929
1.70446
2.60992
1.40389
2.48566
1.17422
2.38328
0.993983
2.29959
0.848933
2.23197
0.729648
2.1783
0.629791
2.13688
0.545012
2.10627
0.472252
2.08525
0.40932
2.07271
0.354623
2.06764
0.306982
2.06913
0.265515
2.07627
0.229554
2.08823
0.198577
2.10417
0.172164
2.12332
0.149958
2.14491
0.131632
2.16821
0.116866
2.19257
0.105333
2.2174
0.0966907
2.24217
0.0905865
2.26646
0.0866689
2.28992
0.084608
2.3123
0.0841101
2.33336
0.0849351
2.35292
0.0868981
2.37082
0.0898629
2.38691
0.0937254
2.40103
0.0983919
2.41305
0.10376
2.42285
0.109699
2.43035
0.116044
2.43552
0.12259
2.43838
0.129108
2.43902
0.135356
2.43761
0.141086
2.43436
0.146059
2.42956
0.150053
2.42355
0.152873
2.41671
0.154354
2.40945
0.154368
2.40222
0.152835
2.39547
0.149724
2.38964
0.145059
2.38516
0.138922
2.38241
0.13145
2.38172
0.12283
2.38336
0.113289
2.38752
0.103086
2.39432
0.0925028
2.40378
0.0818299
2.41586
0.0713602
2.43041
0.0613748
2.44724
0.0521327
2.46607
0.0438626
2.48657
0.0367465
2.50838
0.0309126
2.53112
0.0264245
2.5544
0.0232768
2.57788
0.0213976
2.60124
0.0206578
2.62423
0.0208853
2.64665
0.0218865
2.66839
0.0234688
2.68936
0.0254579
2.70951
0.027709
2.72884
0.0301073
2.74734
0.0325642
2.76502
0.0350072
2.78191
0.0373668
2.79804
0.0395658
2.81346
0.0415119
2.82827
0.0430947
2.84257
0.044189
2.85654
0.0446593
2.87036
0.0443673
2.88427
0.0431817
2.89854
0.0409881
2.91347
0.0376901
2.92935
0.0332141
2.94652
0.0275034
2.9653
0.0205168
2.98601
0.0122168
3.009
0.00256473
3.03459
-0.00848948
3.06315
-0.0210152
3.09502
-0.0351069
3.13062
-0.0508908
3.17036
-0.0685287
3.21473
-0.0882278
3.26425
-0.110241
3.31954
-0.134879
3.38129
-0.162511
3.45028
-0.193578
3.52745
-0.2286
3.61386
-0.268183
3.71075
-0.313026
3.8196
-0.363924
3.94211
-0.421762
4.08027
-0.487501
4.23643
-0.562144
4.4133
-0.646668
4.61403
-0.741893
4.84219
-0.848282
5.10173
-0.965584
5.39675
-1.09228
5.73088
-1.22475
6.10614
-1.35609
6.52064
-1.47493
6.96524
-1.56494
7.42011
-1.60753
7.85529
-1.59171
8.24312
-1.53349
8.58243
-1.4898
8.89574
-1.5189
9.22192
-1.66759
9.61611
-1.97572
10.1596
-2.48207
10.9787
-3.22001
12.261
-4.17962
14.1991
-5.16364
16.5355
-5.32356
16.7743
-2.00898
16.7585
-0.895255
16.717
-0.28789
16.7183
0.120761
16.7012
0.610763
16.4223
1.47645
14.917
3.41791
14.2083
2.5987
13.9375
2.06995
13.7256
2.15114
13.2465
2.85682
12.1433
4.12911
10.8068
4.89854
9.21168
5.56695
7.587
5.78815
6.06587
5.68871
4.67883
5.45031
3.40915
5.19013
2.22644
4.9682
1.0996
4.81167
4.73157
1.14736
4.81055
1.95336
4.42616
2.3872
3.84481
2.557
3.23637
2.57872
2.69239
2.53166
2.24142
2.45872
1.87866
2.38025
1.58809
2.30542
1.35336
2.23823
1.16112
2.18031
1.00137
2.13211
0.866772
2.09352
0.751993
2.06412
0.653136
2.04334
0.567334
2.03055
0.492458
2.02507
0.426913
2.02618
0.369503
2.03316
0.319317
2.04529
0.275661
2.06181
0.23799
2.08197
0.205862
2.10499
0.178898
2.13014
0.156737
2.15668
0.139014
2.18393
0.125335
2.21129
0.11527
2.23825
0.10836
2.26439
0.104139
2.28942
0.102165
2.31312
0.102051
2.33532
0.103491
2.35588
0.106268
2.37469
0.110238
2.39158
0.115308
2.4064
0.121397
2.41899
0.128405
2.42919
0.13618
2.43689
0.144513
2.44203
0.153141
2.44462
0.161756
2.44475
0.170035
2.44258
0.177648
2.43835
0.184281
2.43238
0.189643
2.42503
0.193477
2.41672
0.195565
2.40792
0.195735
2.39911
0.193876
2.39081
0.189942
2.38351
0.183962
2.37769
0.176042
2.37379
0.166363
2.37218
0.155173
2.37316
0.142774
2.37694
0.129509
2.38364
0.115747
2.39331
0.101874
2.40587
0.0882735
2.42117
0.0753187
2.43897
0.063355
2.45895
0.0526869
2.48074
0.0435619
2.50389
0.0361547
2.52797
0.0305522
2.55252
0.0267453
2.57714
0.0246272
2.60146
0.0240072
2.62523
0.024635
2.64824
0.0262328
2.67038
0.0285294
2.69161
0.0312881
2.71191
0.0343227
2.73129
0.0374984
2.74978
0.040721
2.76738
0.0439195
2.78411
0.0470255
2.79998
0.0499547
2.81505
0.0525968
2.82936
0.0548116
2.84304
0.0564314
2.85625
0.0572725
2.86917
0.0571469
2.88208
0.0558797
2.89525
0.0533194
2.90899
0.0493435
2.92364
0.0438624
2.93953
0.0368153
2.957
0.0281626
2.97636
0.0178755
2.99795
0.00591872
3.02207
-0.00775701
3.04905
-0.0232247
3.07924
-0.040592
3.11298
-0.0600047
3.15066
-0.0816569
3.19271
-0.105793
3.23962
-0.132719
3.29191
-0.162808
3.35022
-0.196508
3.41526
-0.234358
3.48786
-0.276996
3.56901
-0.325169
3.65986
-0.379752
3.76177
-0.441752
3.87637
-0.512319
4.00563
-0.592741
4.15191
-0.684427
4.31808
-0.788857
4.50764
-0.907485
4.72489
-1.04156
4.97504
-1.19174
5.26428
-1.3575
5.59954
-1.53589
5.9873
-1.7196
6.43063
-1.89376
6.92265
-2.03199
7.43592
-2.09499
7.91352
-2.04231
8.28681
-1.87902
8.55334
-1.72815
8.74705
-1.68397
8.91379
-1.80486
9.10976
-2.14068
9.42166
-2.76019
10.0191
-3.7787
11.277
-5.38955
14.0392
-7.85588
19.8501
-11.0737
17.8881
-19.4523
17.3658
-6.30463
17.1257
-0.222988
17.2083
0.761231
17.5669
3.07013
18.3638
7.63248
14.0978
7.72459
13.6795
3.05339
14.0187
1.76477
14.4313
1.77248
14.5188
2.80494
12.9127
5.77337
11.4752
6.3741
9.43289
7.64589
7.48756
7.76724
5.82746
7.37953
4.41865
6.8874
3.18722
6.44812
2.06992
6.11096
1.0195
5.88688
5.77567
0.762977
4.06883
1.37201
3.84738
1.77876
3.48404
2.01302
3.06906
2.12775
2.66459
2.16889
2.30051
2.16815
1.98512
2.14552
1.71614
2.11319
1.48754
2.07848
1.29266
2.04571
1.12555
2.01733
0.981232
1.99466
0.85576
1.97831
0.746021
1.96847
0.649596
1.96501
0.564614
1.96766
0.489632
1.97599
0.423537
1.98951
0.365475
2.00762
0.314791
2.02969
0.270973
2.055
0.233603
2.08283
0.202318
2.11242
0.176757
2.143
0.156531
2.17387
0.141189
2.20438
0.130209
2.23403
0.123004
2.26242
0.118962
2.28931
0.117498
2.31456
0.118108
2.3381
0.120413
2.35985
0.124175
2.37976
0.129274
2.39767
0.135662
2.4134
0.143304
2.42676
0.152125
2.43752
0.161964
2.44552
0.172567
2.45065
0.183593
2.4529
0.194643
2.45236
0.205291
2.44921
0.21511
2.44371
0.2237
2.43621
0.230694
2.42712
0.235766
2.41689
0.238635
2.40606
0.239077
2.39517
0.236939
2.38482
0.232154
2.37559
0.224754
2.36801
0.214872
2.3626
0.202741
2.35978
0.188681
2.35989
0.173081
2.36318
0.156382
2.36977
0.139059
2.37971
0.121601
2.39292
0.104499
2.40921
0.088229
2.4283
0.0732382
2.44983
0.0599245
2.47333
0.0486175
2.49829
0.0395525
2.52416
0.0328485
2.5504
0.0284901
2.57652
0.0263246
2.60209
0.0260764
2.62682
0.0273841
2.65053
0.0298515
2.67314
0.0331012
2.69464
0.0368182
2.71508
0.040773
2.73452
0.0448216
2.75298
0.0488829
2.77049
0.0529078
2.78704
0.0568467
2.80263
0.0606204
2.81726
0.0641027
2.83098
0.0671173
2.84389
0.0694465
2.85612
0.0708473
2.86791
0.0710683
2.87952
0.0698758
2.89127
0.0670722
2.90351
0.0625079
2.9166
0.0560829
2.93088
0.0477412
2.94671
0.0374564
2.96441
0.0252163
2.98427
0.0110047
3.0066
-0.00521681
3.03169
-0.0235194
3.05983
-0.0440147
3.09133
-0.0668621
3.12652
-0.0922802
3.16579
-0.120547
3.20953
-0.152012
3.25821
-0.187101
3.31237
-0.226334
3.37262
-0.270329
3.43969
-0.319832
3.51443
-0.375721
3.59786
-0.439034
3.6912
-0.510987
3.79595
-0.592996
3.91394
-0.686692
4.04748
-0.793934
4.19945
-0.916808
4.37357
-1.05759
4.5747
-1.21866
4.80928
-1.40225
5.08589
-1.60996
5.41583
-1.84153
5.81315
-2.09232
6.2924
-2.3478
6.85965
-2.57285
7.4886
-2.69507
8.07681
-2.59783
8.43768
-2.20681
8.59752
-1.85562
8.62615
-1.68061
8.57797
-1.72435
8.49025
-2.01941
8.40315
-2.63721
8.40827
-3.74413
8.81064
-5.74648
10.8214
-9.80283
11.4714
-13.2378
31.0358
-25.8792
23.4475
-20.241
18.1099
-3.96356
19.5172
8.02112
22.1293
9.81126
18.4559
4.56968
9.42662
0.899428
12.3909
1.48257
14.0264
1.93569
15.4637
4.10051
17.4872
8.98376
13.5135
9.78552
12.747
7.17999
9.55423
10.8791
7.09985
10.2591
5.33534
9.1773
3.97936
8.27319
2.85006
7.60485
1.84584
7.1411
0.908299
6.84944
6.70865
0.541532
3.57787
1.00867
3.4414
1.36378
3.20439
1.60855
2.91427
1.76367
2.61003
1.8535
2.31622
1.89918
2.04514
1.91691
1.80119
1.91831
1.5844
1.91137
1.39274
1.9014
1.22347
1.89186
1.07377
1.88492
0.941098
1.88189
0.82324
1.88348
0.718366
1.89003
0.624981
1.90156
0.541889
1.91793
0.468145
1.93882
0.403019
1.9638
0.345952
1.99232
0.296515
2.02372
0.254366
2.05727
0.219203
2.09219
0.190706
2.12766
0.168494
2.16289
0.152073
2.19718
0.140816
2.22999
0.133979
2.26096
0.130749
2.28992
0.130339
2.31687
0.132088
2.34186
0.135535
2.36495
0.140439
2.38614
0.146749
2.40531
0.154522
2.42222
0.163825
2.4366
0.174645
2.44813
0.186823
2.45655
0.200053
2.4617
0.213894
2.46355
0.227817
2.46218
0.241267
2.4578
0.253702
2.45071
0.264625
2.44129
0.273584
2.42999
0.28018
2.41733
0.284059
2.40392
0.28493
2.39039
0.282583
2.37742
0.276919
2.36571
0.267966
2.35588
0.255891
2.34854
0.24099
2.34418
0.22367
2.34319
0.20443
2.34585
0.183825
2.35231
0.162451
2.36261
0.140917
2.37664
0.119837
2.39422
0.0998061
2.41499
0.0813903
2.43852
0.0651028
2.46426
0.0513795
2.49159
0.0405401
2.5198
0.032752
2.54824
0.0279977
2.57627
0.0260621
2.6034
0.0265492
2.62929
0.0289359
2.65378
0.0326526
2.67686
0.037172
2.6986
0.0420781
2.71913
0.0470993
2.73858
0.0521024
2.757
0.0570537
2.77442
0.0619599
2.79081
0.0668155
2.80611
0.0715602
2.82028
0.076059
2.83331
0.0800949
2.84529
0.0833826
2.85634
0.0855961
2.86671
0.0863991
2.87671
0.0854804
2.88671
0.0825848
2.89709
0.0775335
2.90825
0.0702227
2.9206
0.0606136
2.93447
0.0487119
2.95019
0.0345394
2.96805
0.0181103
2.9883
-0.000586733
3.01119
-0.0216097
3.03698
-0.0450678
3.06591
-0.0711318
3.09826
-0.100036
3.13432
-0.132085
3.17444
-0.16766
3.21898
-0.207233
3.26837
-0.251374
3.32312
-0.300775
3.3838
-0.356263
3.45112
-0.418829
3.5259
-0.489655
3.60919
-0.570144
3.70225
-0.661959
3.8067
-0.767065
3.92461
-0.887775
4.05866
-1.02681
4.2125
-1.18736
4.39111
-1.37316
4.60158
-1.58854
4.85432
-1.83836
5.16504
-2.12762
5.55766
-2.45974
6.06735
-2.83109
6.73743
-3.21382
7.58584
-3.50771
8.46784
-3.43165
8.78886
-2.48628
8.77253
-1.80248
8.58241
-1.45592
8.28291
-1.39096
7.87246
-1.57471
7.29622
-2.02562
6.40592
-2.81696
4.75429
-4.05665
7.38643
-5.70047
-1.16998
-9.44552
36.6739
-4.39772
39.7249
-7.62346
30.0946
1.77667
21.3073
8.54229
16.8877
12.2943
14.7857
15.4452
10.0098
16.5447
12.844
18.5213
16.1912
18.2496
20.347
11.3077
18.289
7.92636
10.9079
7.67836
16.4461
19.2481
8.93424
18.4296
6.01808
13.2129
4.43123
10.7978
3.31103
9.42358
2.3863
8.55735
1.55417
7.99942
0.767514
7.66129
7.50092
0.405054
3.25149
0.771665
3.16115
1.07366
2.99732
1.30431
2.78541
1.46985
2.54976
1.58242
2.30896
1.65523
2.07514
1.70012
1.8551
1.72666
1.65193
1.74209
1.46646
1.7517
1.29822
1.75918
1.14611
1.76706
1.00882
1.77702
0.885024
1.7901
0.773497
1.80694
0.673163
1.82782
0.583122
1.85281
0.502645
1.88176
0.43117
1.91437
0.368282
1.95017
0.313684
1.98855
0.267161
2.02878
0.228526
2.06998
0.197557
2.11124
0.173922
2.15163
0.157111
2.19034
0.146383
2.22676
0.14078
2.26055
0.139198
2.29167
0.140552
2.32031
0.143948
2.34676
0.148818
2.37126
0.154956
2.39392
0.162461
2.41461
0.171593
2.43304
0.182605
2.44878
0.1956
2.46136
0.210449
2.47039
0.226766
2.47562
0.243962
2.477
0.261328
2.47462
0.278134
2.46872
0.293694
2.45967
0.307406
2.44788
0.31874
2.43386
0.32722
2.4182
0.332406
2.40157
0.333919
2.38472
0.331467
2.36847
0.324898
2.35363
0.314229
2.34098
0.299666
2.33122
0.281588
2.32494
0.260515
2.32259
0.237077
2.32448
0.211972
2.33078
0.185935
2.34153
0.159715
2.35661
0.13406
2.3758
0.109703
2.3987
0.0873487
2.4248
0.0676556
2.45343
0.0511979
2.4838
0.0384185
2.51505
0.0295651
2.5463
0.0246321
2.57675
0.0233243
2.60578
0.025072
2.63301
0.0291094
2.6583
0.0346056
2.68176
0.0408122
2.70362
0.0471793
2.72413
0.0534028
2.74353
0.0594006
2.76191
0.0652383
2.77928
0.0710329
2.79556
0.0768662
2.81061
0.0827224
2.82431
0.0884582
2.8366
0.0938034
2.8475
0.0983802
2.85715
0.101745
2.8658
0.103442
2.87382
0.103053
2.88165
0.100248
2.88977
0.0948158
2.89864
0.0866594
2.9087
0.075781
2.9203
0.0622409
2.93376
0.0461219
2.94935
0.0274925
2.96728
0.00637892
2.98773
-0.017253
3.01091
-0.0435045
3.037
-0.0725502
3.06621
-0.104635
3.09875
-0.140081
3.13487
-0.179296
3.17484
-0.222779
3.21897
-0.27114
3.26763
-0.325115
3.32124
-0.385596
3.38029
-0.453656
3.44541
-0.530588
3.51737
-0.617947
3.59715
-0.717602
3.68599
-0.831799
3.78557
-0.963248
3.89811
-1.11524
4.0267
-1.2918
4.17573
-1.49798
4.35175
-1.74022
4.56506
-2.02708
4.83291
-2.37037
5.18631
-2.78706
5.68462
-3.3012
6.44354
-3.93939
7.6619
-4.6773
9.41321
-5.09868
9.47266
-2.49853
9.11909
-1.4107
8.64737
-0.94933
8.09916
-0.809125
7.42155
-0.86379
6.50488
-1.07554
5.16623
-1.44477
3.11048
-1.96761
3.64138
-2.86964
3.87781
-4.40257
33.4482
-2.44556
49.1251
6.77273
36.8602
13.9141
25.0594
20.2924
20.0385
28.477
15.8852
34.0226
11.9863
36.6662
12.5723
37.2926
9.24932
33.7096
16.9657
28.2332
18.041
26.6393
22.4777
33.3894
15.6276
32.4032
3.71754
16.1066
3.60294
13.3574
3.05701
11.3735
2.44479
10.0645
1.82837
9.20116
1.21604
8.63793
0.60715
8.29546
8.13291
0.314714
3.03199
0.607834
2.96721
0.861745
2.84611
1.06866
2.68302
1.22906
2.49355
1.3486
2.29138
1.43518
2.08698
1.49696
1.8875
1.54119
1.69734
1.57385
1.51889
1.59959
1.35319
1.62189
1.2004
1.64327
1.06021
1.66549
0.932045
1.68977
0.815228
1.71689
0.709093
1.74734
0.613041
1.78133
0.526573
1.81887
0.44932
1.85977
0.381041
1.90364
0.321615
1.94992
0.271007
1.99781
0.229213
2.04635
0.196184
2.09443
0.171713
2.1409
0.155318
2.18474
0.146145
2.22517
0.142934
2.2619
0.144144
2.29507
0.148209
2.32518
0.15387
2.3529
0.160415
2.37877
0.167741
2.40305
0.176229
2.42562
0.186501
2.44604
0.199147
2.46363
0.214478
2.47767
0.232402
2.48758
0.252414
2.49299
0.27369
2.4938
0.295247
2.49018
0.316104
2.48244
0.335404
2.471
0.352446
2.45636
0.366641
2.43905
0.377447
2.41972
0.38433
2.39912
0.386779
2.37816
0.384379
2.3578
0.376889
2.33907
0.364304
2.3229
0.346879
2.31015
0.325103
2.3015
0.299649
2.29748
0.271315
2.29844
0.240974
2.30456
0.209525
2.31587
0.177872
2.33226
0.146909
2.35345
0.11752
2.37901
0.0905716
2.40834
0.0668996
2.44065
0.0472683
2.47494
0.0323031
2.51012
0.0223919
2.54499
0.0175766
2.5785
0.0174688
2.60982
0.0212462
2.6385
0.0277667
2.66451
0.035792
2.68813
0.0442397
2.70984
0.0523765
2.73013
0.059887
2.74937
0.0668154
2.7677
0.0734247
2.78511
0.0800315
2.80141
0.0868636
2.81634
0.0939769
2.82966
0.101223
2.84118
0.108256
2.85087
0.114568
2.85884
0.119546
2.86541
0.122556
2.87101
0.123028
2.87622
0.12053
2.88162
0.114816
2.88777
0.105817
2.89516
0.0936091
2.90418
0.0783517
2.91514
0.0602229
2.92824
0.0393696
2.94364
0.0158744
2.96148
-0.0102627
2.98187
-0.0391328
3.00492
-0.0709102
3.03076
-0.10585
3.05953
-0.144287
3.09138
-0.186642
3.12648
-0.233427
3.165
-0.285268
3.20715
-0.342926
3.25318
-0.407323
3.30336
-0.479582
3.35805
-0.561062
3.41772
-0.653419
3.48295
-0.758659
3.55454
-0.87923
3.63358
-1.01812
3.72155
-1.17901
3.82052
-1.36653
3.93349
-1.58658
4.0649
-1.84704
4.22177
-2.15896
4.41622
-2.53908
4.67217
-3.01579
5.04643
-3.6451
5.70564
-4.56032
7.24052
-6.14776
12.0134
-9.74799
10.5605
-10.8755
9.58046
-5.49184
8.78757
-2.21253
8.0445
-0.448202
7.2098
0.0225479
6.13565
0.365258
4.64339
0.895836
2.20844
0.497742
2.10845
-0.787484
5.83482
-1.54361
42.6665
16.9026
56.2664
29.64
43.2385
26.8741
33.244
30.2842
25.5841
36.0649
18.5288
40.9551
12.6127
42.3994
8.98938
40.6264
3.77285
38.6003
15.3718
42.4092
24.7911
43.5426
21.4914
39.1584
-0.668881
20.1265
0.968315
15.119
1.61901
12.7344
1.74807
11.2722
1.58142
10.2587
1.26515
9.54426
0.873567
9.05552
0.444599
8.74972
8.6024
0.24994
2.88275
0.486727
2.83259
0.698658
2.73699
0.879186
2.60467
1.02689
2.44605
1.1442
2.27126
1.2357
2.08894
1.3068
1.90578
1.36274
1.7266
1.40814
1.55458
1.44681
1.39168
1.4817
1.23893
1.5151
1.09677
1.54867
0.965213
1.58363
0.844044
1.62084
0.732943
1.66087
0.631575
1.70408
0.53966
1.75059
0.457018
1.80034
0.383601
1.85304
0.319496
1.90813
0.264906
1.96478
0.220096
2.02187
0.185296
2.07803
0.160545
2.13173
0.145496
2.18153
0.139201
2.22638
0.139993
2.26597
0.145618
2.30073
0.153713
2.33173
0.16241
2.36023
0.170795
2.38726
0.17898
2.41332
0.187869
2.43827
0.198733
2.46137
0.212729
2.48155
0.230515
2.49769
0.252044
2.50886
0.276592
2.51455
0.30295
2.51466
0.329694
2.50948
0.355474
2.49948
0.379227
2.4852
0.400197
2.46717
0.417805
2.44593
0.431482
2.42216
0.440576
2.39672
0.444386
2.37066
0.442284
2.34522
0.433881
2.32164
0.41913
2.30113
0.398357
2.2847
0.37221
2.27317
0.341575
2.26714
0.307477
2.26699
0.270999
2.27291
0.233234
2.28491
0.195251
2.30287
0.158097
2.3265
0.122811
2.35534
0.0904353
2.38871
0.0620208
2.42568
0.0385912
2.46503
0.0210537
2.5053
0.0100461
2.54489
0.00573978
2.58228
0.00765608
2.61634
0.0146065
2.64653
0.0248521
2.67296
0.0364921
2.69627
0.0479166
2.71735
0.0581414
2.73706
0.0668978
2.75597
0.0744984
2.77431
0.0815689
2.79195
0.0887612
2.80853
0.0965394
2.82359
0.105062
2.83669
0.114168
2.84749
0.123402
2.85584
0.132064
2.86185
0.139293
2.86588
0.14419
2.86852
0.145955
2.87051
0.144016
2.87262
0.138091
2.87556
0.128179
2.8799
0.11449
2.88605
0.097337
2.89428
0.0770503
2.90474
0.0538936
2.91751
0.0280226
2.93261
-0.000526923
2.95009
-0.0318371
2.96998
-0.0660887
2.99232
-0.103547
3.01718
-0.144554
3.0446
-0.189532
3.07463
-0.23899
3.10734
-0.293549
3.14275
-0.353963
3.18092
-0.421153
3.22188
-0.496244
3.2657
-0.580614
3.31248
-0.67595
3.36238
-0.784322
3.41565
-0.908264
3.47269
-1.05089
3.53404
-1.21604
3.60047
-1.40854
3.67303
-1.63451
3.75298
-1.90203
3.84164
-2.22208
3.93951
-2.61037
4.04286
-3.09062
4.13122
-3.70094
4.11819
-4.50504
3.64029
-5.59989
10.8859
-7.01226
15.9441
-13.633
12.8598
-13.9611
10.5519
-7.86639
8.51525
-1.69942
7.55251
2.7432
6.66622
3.40653
4.2453
1.23155
0.923217
0.0581559
1.35233
0.611122
24.2811
1.11722
55.4038
22.7731
53.5006
31.3843
46.6487
33.7211
39.0246
37.9079
30.4743
44.6135
19.9731
51.4525
10.8397
51.5256
6.9632
44.4916
7.58185
37.969
16.5052
33.1946
20.4069
26.0088
2.45958
11.9234
-5.67641
7.13786
-1.41626
10.8869
0.156806
11.1886
0.734525
10.7214
0.866979
10.153
0.776409
9.66123
0.567759
9.29001
0.29728
9.04546
8.92461
0.199781
2.78265
0.391121
2.74109
0.566336
2.66095
0.720566
2.548
0.852104
2.4096
0.961878
2.25345
1.05255
2.0867
1.12761
1.91542
1.19072
1.74443
1.24524
1.5773
1.29406
1.41655
1.33954
1.26379
1.38354
1.11996
1.4275
0.985511
1.47253
0.860558
1.51947
0.745041
1.56896
0.638826
1.62144
0.541804
1.67717
0.453964
1.73624
0.375446
1.79845
0.306567
1.86332
0.247829
1.92998
0.199864
1.99712
0.163335
2.06298
0.138731
2.12543
0.126051
2.18232
0.124373
2.23201
0.131492
2.27406
0.143967
2.30942
0.158031
2.34011
0.170747
2.36841
0.180918
2.39615
0.189112
2.42418
0.197178
2.45227
0.207506
2.47916
0.222227
2.50308
0.242541
2.52223
0.268419
2.53522
0.298735
2.54129
0.331618
2.54044
0.364914
2.53323
0.396697
2.52045
0.425673
2.50281
0.451163
2.48084
0.472763
2.45503
0.489971
2.42597
0.501989
2.39462
0.507791
2.36226
0.506385
2.33047
0.49712
2.30087
0.479881
2.27498
0.455113
2.25406
0.423713
2.23907
0.386872
2.23067
0.345922
2.22923
0.302217
2.23492
0.257065
2.24776
0.211705
2.26758
0.167324
2.29412
0.125096
2.32692
0.0862428
2.36528
0.0520635
2.40814
0.0239299
2.45403
0.00318313
2.50099
-0.0090876
2.5468
-0.0124001
2.58923
-0.00726281
2.62659
0.00460505
2.65817
0.0204813
2.68438
0.0373465
2.70649
0.0527311
2.72611
0.0653117
2.74466
0.0750015
2.76305
0.0826452
2.7815
0.0895224
2.79972
0.0968411
2.81705
0.105407
2.8327
0.115507
2.84592
0.126937
2.85615
0.139075
2.86307
0.15095
2.86675
0.161337
2.86764
0.168927
2.86658
0.172566
2.86458
0.171473
2.86271
0.165343
2.86187
0.154314
2.86275
0.138829
2.86576
0.119461
2.87113
0.0967597
2.87887
0.0711464
2.88896
0.0428664
2.9013
0.0119853
2.91584
-0.0215816
2.93252
-0.0580384
2.95132
-0.0976688
2.9722
-0.140822
2.99514
-0.187908
3.02008
-0.239415
3.04693
-0.295932
3.07556
-0.358176
3.10583
-0.427026
3.13751
-0.503563
3.17036
-0.589126
3.20411
-0.685364
3.23844
-0.794317
3.27303
-0.918494
3.30753
-1.06098
3.34154
-1.22553
3.3745
-1.4168
3.40551
-1.64054
3.43292
-1.90398
3.45335
-2.21626
3.45926
-2.58871
3.43255
-3.034
3.32712
-3.56094
3.02334
-4.15572
2.22791
-4.73079
4.26512
-5.05732
15.6161
-7.73289
18.9545
-5.41132
16.7189
-0.162575
12.9579
0.400583
8.21584
3.03507
4.49125
6.34458
3.0719
11.1954
1.47618
16.9702
1.85842
26.1594
45.937
43.3625
64.015
48.5457
55.8374
39.5467
50.8355
38.7223
45.7301
43.0135
37.3133
53.0295
20.0463
68.719
3.80574
67.7658
0.440636
47.8561
2.80738
35.6014
9.31939
26.6752
6.32147
18.0737
-2.32596
10.1679
-1.92742
9.07256
-1.1145
10.1018
-0.310369
10.4119
0.166127
10.2718
0.375167
9.97052
0.405189
9.65737
0.32321
9.3977
0.176429
9.21749
9.12602
0.158221
2.72014
0.310983
2.68362
0.45339
2.61269
0.582164
2.51151
0.695952
2.3856
0.795126
2.24112
0.88127
2.08417
0.956621
1.92033
1.0236
1.75433
1.08449
1.58999
1.1413
1.43013
1.19571
1.27674
1.24909
1.13108
1.30255
0.99387
1.35701
0.865421
1.41326
0.745815
1.47194
0.635032
1.5336
0.533064
1.59865
0.440019
1.66736
0.356196
1.73971
0.28215
1.81535
0.218723
1.89345
0.167029
1.97252
0.128365
2.0503
0.103988
2.12376
0.0946769
2.18944
0.0999012
2.24448
0.11687
2.28812
0.140045
2.32214
0.163092
2.35028
0.181098
2.37661
0.19255
2.40421
0.198951
2.43451
0.203841
2.46699
0.211538
2.49947
0.225809
2.52896
0.248707
2.55255
0.280086
2.5681
0.318061
2.57459
0.359645
2.57223
0.401438
2.56221
0.440537
2.54594
0.475431
2.52441
0.505856
2.49805
0.531965
2.46705
0.553512
2.43178
0.56949
2.39321
0.578285
2.353
0.578231
2.31323
0.568225
2.2761
0.548058
2.24358
0.518399
2.21722
0.480554
2.19812
0.436176
2.18696
0.387021
2.18408
0.334779
2.18956
0.280999
2.20337
0.227075