/*--------------------------------*- C++ -*----------------------------------*\
| =========                 |                                                 |
| \\      /  F ield         | OpenFOAM: The Open Source CFD Toolbox           |
|  \\    /   O peration     | Version:  2.1.0                                 |
|   \\  /    A nd           | Web:      www.OpenFOAM.org                      |
|    \\/     M anipulation  |                                                 |
\*---------------------------------------------------------------------------*/
FoamFile
{
    version     2.0;
    format      ascii;
    class       volScalarField;
    location    "52195";
    object      pw;
}
// * * * * * * * * * * * * * * * * * * * * * * * * * * * * * * * * * * * * * //

dimensions      [1 -1 -2 0 0 0 0];

internalField   nonuniform List<scalar> 
15000
(
5962.85
5944.25
5933.03
5925.27
5919.41
5914.71
5910.79
5907.37
5904.31
5901.49
5898.85
5896.35
5893.95
5891.63
5889.38
5887.17
5885
5882.85
5880.72
5878.59
5876.47
5874.34
5872.2
5870.05
5867.88
5865.7
5863.49
5861.26
5859.01
5856.74
5854.45
5852.14
5849.81
5847.46
5845.09
5842.71
5840.32
5837.92
5835.5
5833.08
5830.66
5828.23
5825.79
5823.36
5820.94
5818.51
5816.09
5813.67
5811.26
5808.85
5806.45
5804.05
5801.66
5799.26
5796.87
5794.47
5792.06
5789.65
5787.24
5784.81
5782.36
5779.9
5777.43
5774.93
5772.42
5769.88
5767.32
5764.74
5762.14
5759.52
5756.87
5754.21
5751.52
5748.82
5746.09
5743.35
5740.59
5737.81
5735.01
5732.2
5729.37
5726.53
5723.67
5720.8
5717.91
5715.01
5712.09
5709.15
5706.19
5703.22
5700.21
5697.19
5694.14
5691.05
5687.93
5684.77
5681.57
5678.32
5675.02
5671.66
5668.23
5664.73
5661.14
5657.46
5653.67
5649.76
5645.72
5641.52
5637.16
5632.6
5627.83
5622.82
5617.54
5611.96
5606.05
5599.79
5593.16
5586.12
5578.68
5570.82
5562.54
5553.82
5544.64
5534.94
5524.63
5513.63
5501.81
5489.07
5475.39
5460.86
5445.7
5430.15
5414.41
5398.67
5383.1
5367.86
5353.11
5338.91
5325.32
5312.42
5300.31
5289.17
5279.14
5270.32
5262.79
5256.57
5251.65
5248.01
5245.59
5244.4
5944.23
5936.89
5929.56
5923.37
5918.24
5913.93
5910.22
5906.94
5903.96
5901.21
5898.61
5896.15
5893.78
5891.48
5889.25
5887.06
5884.91
5882.77
5880.65
5878.53
5876.42
5874.3
5872.16
5870.02
5867.85
5865.67
5863.46
5861.24
5858.99
5856.72
5854.43
5852.12
5849.79
5847.44
5845.07
5842.69
5840.29
5837.89
5835.47
5833.05
5830.62
5828.19
5825.76
5823.33
5820.9
5818.47
5816.05
5813.63
5811.22
5808.82
5806.41
5804.02
5801.62
5799.23
5796.84
5794.44
5792.04
5789.63
5787.22
5784.79
5782.35
5779.89
5777.42
5774.92
5772.41
5769.87
5767.32
5764.74
5762.14
5759.51
5756.87
5754.2
5751.52
5748.81
5746.08
5743.34
5740.58
5737.8
5735
5732.19
5729.36
5726.52
5723.66
5720.79
5717.9
5715
5712.08
5709.14
5706.19
5703.21
5700.22
5697.19
5694.14
5691.06
5687.95
5684.79
5681.6
5678.35
5675.06
5671.7
5668.28
5664.79
5661.21
5657.54
5653.76
5649.87
5645.84
5641.67
5637.32
5632.79
5628.05
5623.06
5617.81
5612.26
5606.38
5600.15
5593.53
5586.51
5579.07
5571.22
5562.96
5554.27
5545.13
5535.51
5525.31
5514.42
5502.7
5489.99
5476.21
5461.46
5446.07
5430.31
5414.39
5398.48
5382.74
5367.36
5352.53
5338.28
5324.61
5311.59
5299.33
5288.04
5277.89
5269.01
5261.46
5255.25
5250.36
5246.74
5244.36
5243.17
5932.95
5929.51
5924.95
5920.4
5916.23
5912.51
5909.16
5906.11
5903.3
5900.66
5898.15
5895.75
5893.44
5891.2
5889
5886.85
5884.72
5882.61
5880.51
5878.41
5876.31
5874.2
5872.08
5869.95
5867.79
5865.61
5863.41
5861.19
5858.94
5856.68
5854.39
5852.07
5849.74
5847.39
5845.02
5842.64
5840.24
5837.83
5835.42
5832.99
5830.56
5828.12
5825.69
5823.26
5820.82
5818.4
5815.97
5813.56
5811.15
5808.74
5806.34
5803.95
5801.56
5799.17
5796.78
5794.39
5792
5789.59
5787.18
5784.76
5782.32
5779.87
5777.4
5774.91
5772.39
5769.86
5767.3
5764.73
5762.13
5759.5
5756.86
5754.19
5751.5
5748.79
5746.07
5743.32
5740.56
5737.78
5734.98
5732.17
5729.34
5726.5
5723.64
5720.77
5717.88
5714.98
5712.07
5709.13
5706.18
5703.21
5700.22
5697.2
5694.15
5691.08
5687.97
5684.83
5681.64
5678.41
5675.13
5671.79
5668.38
5664.91
5661.35
5657.7
5653.95
5650.09
5646.09
5641.96
5637.66
5633.17
5628.48
5623.55
5618.36
5612.87
5607.05
5600.86
5594.28
5587.28
5579.86
5572.01
5563.77
5555.13
5546.1
5536.63
5526.66
5516.03
5504.55
5491.95
5477.98
5462.69
5446.78
5430.6
5414.34
5398.09
5381.99
5366.28
5351.34
5337.04
5323.24
5309.96
5297.36
5285.75
5275.36
5266.34
5258.76
5252.59
5247.77
5244.22
5241.9
5240.74
5925.12
5923.25
5920.33
5917.05
5913.78
5910.65
5907.72
5904.96
5902.35
5899.87
5897.48
5895.18
5892.95
5890.77
5888.64
5886.53
5884.44
5882.37
5880.3
5878.23
5876.16
5874.07
5871.97
5869.84
5867.7
5865.53
5863.34
5861.12
5858.88
5856.61
5854.32
5852.01
5849.68
5847.32
5844.95
5842.56
5840.16
5837.75
5835.33
5832.9
5830.46
5828.02
5825.58
5823.15
5820.71
5818.28
5815.86
5813.44
5811.03
5808.63
5806.24
5803.85
5801.46
5799.08
5796.7
5794.31
5791.93
5789.53
5787.13
5784.71
5782.28
5779.83
5777.37
5774.88
5772.37
5769.84
5767.29
5764.71
5762.11
5759.48
5756.84
5754.17
5751.48
5748.77
5746.04
5743.29
5740.53
5737.75
5734.95
5732.14
5729.31
5726.47
5723.61
5720.74
5717.85
5714.96
5712.04
5709.11
5706.17
5703.2
5700.21
5697.21
5694.17
5691.11
5688.01
5684.88
5681.71
5678.5
5675.23
5671.91
5668.53
5665.08
5661.55
5657.94
5654.23
5650.41
5646.47
5642.39
5638.15
5633.74
5629.12
5624.28
5619.18
5613.78
5608.05
5601.95
5595.43
5588.46
5581.04
5573.19
5564.94
5556.36
5547.46
5538.24
5528.63
5518.47
5507.49
5495.23
5481.03
5464.49
5447.72
5430.96
5414.24
5397.52
5380.82
5364.4
5349.48
5335.27
5321.34
5307.61
5294.37
5282.22
5271.42
5262.2
5254.62
5248.55
5243.87
5240.46
5238.24
5237.14
5919.17
5918.02
5916.07
5913.68
5911.13
5908.55
5906.02
5903.56
5901.18
5898.87
5896.63
5894.45
5892.32
5890.23
5888.16
5886.12
5884.09
5882.06
5880.04
5878.01
5875.96
5873.9
5871.82
5869.71
5867.58
5865.42
5863.24
5861.03
5858.79
5856.53
5854.24
5851.92
5849.59
5847.23
5844.86
5842.47
5840.06
5837.64
5835.21
5832.78
5830.33
5827.89
5825.44
5823
5820.56
5818.13
5815.71
5813.29
5810.88
5808.48
5806.09
5803.71
5801.33
5798.96
5796.58
5794.21
5791.83
5789.45
5787.06
5784.65
5782.23
5779.79
5777.33
5774.85
5772.35
5769.82
5767.27
5764.69
5762.09
5759.46
5756.81
5754.14
5751.45
5748.74
5746.01
5743.26
5740.49
5737.71
5734.91
5732.09
5729.26
5726.42
5723.56
5720.7
5717.81
5714.92
5712.01
5709.09
5706.15
5703.19
5700.21
5697.21
5694.19
5691.14
5688.06
5684.95
5681.8
5678.61
5675.37
5672.08
5668.73
5665.31
5661.82
5658.25
5654.59
5650.83
5646.96
5642.95
5638.8
5634.48
5629.97
5625.25
5620.27
5615.01
5609.41
5603.42
5596.99
5590.07
5582.63
5574.72
5566.43
5557.88
5549.13
5540.22
5531.11
5521.69
5511.67
5500.39
5486.35
5466.5
5448.61
5431.25
5414.12
5396.91
5379.35
5360.98
5346.88
5333.21
5319.19
5304.76
5290.24
5277.32
5265.85
5256.42
5248.93
5243.1
5238.68
5235.49
5233.42
5232.41
5914.36
5913.6
5912.23
5910.45
5908.43
5906.31
5904.14
5901.97
5899.82
5897.71
5895.63
5893.59
5891.57
5889.57
5887.6
5885.63
5883.66
5881.7
5879.72
5877.73
5875.72
5873.69
5871.64
5869.55
5867.44
5865.3
5863.13
5860.92
5858.69
5856.42
5854.14
5851.82
5849.48
5847.12
5844.74
5842.35
5839.93
5837.5
5835.07
5832.62
5830.17
5827.72
5825.27
5822.82
5820.37
5817.94
5815.51
5813.09
5810.69
5808.29
5805.91
5803.53
5801.16
5798.8
5796.44
5794.08
5791.72
5789.35
5786.97
5784.58
5782.17
5779.74
5777.29
5774.81
5772.32
5769.79
5767.24
5764.67
5762.06
5759.44
5756.79
5754.11
5751.42
5748.7
5745.97
5743.22
5740.45
5737.66
5734.86
5732.04
5729.21
5726.36
5723.51
5720.64
5717.76
5714.87
5711.96
5709.05
5706.12
5703.17
5700.21
5697.22
5694.22
5691.18
5688.12
5685.03
5681.91
5678.74
5675.53
5672.27
5668.96
5665.59
5662.15
5658.63
5655.04
5651.34
5647.55
5643.63
5639.59
5635.39
5631.01
5626.44
5621.63
5616.54
5611.13
5605.32
5599.02
5592.16
5584.67
5576.6
5568.16
5559.56
5550.94
5542.36
5533.87
5525.47
5517.06
5508.25
5497.42
5485.95
5454.92
5431.47
5413.36
5393.84
5371.71
5353.26
5343.83
5331.44
5317.41
5301.95
5284.46
5270.95
5258.2
5248.65
5241.55
5236.21
5232.23
5229.38
5227.54
5226.63
5910.29
5909.75
5908.74
5907.38
5905.77
5904.01
5902.15
5900.25
5898.34
5896.42
5894.51
5892.61
5890.71
5888.83
5886.95
5885.06
5883.17
5881.27
5879.35
5877.41
5875.45
5873.46
5871.44
5869.38
5867.29
5865.16
5863
5860.8
5858.57
5856.31
5854.02
5851.7
5849.36
5846.99
5844.61
5842.2
5839.78
5837.34
5834.89
5832.44
5829.98
5827.51
5825.05
5822.59
5820.14
5817.7
5815.27
5812.85
5810.45
5808.06
5805.68
5803.32
5800.96
5798.61
5796.27
5793.92
5791.58
5789.23
5786.86
5784.49
5782.09
5779.68
5777.24
5774.78
5772.28
5769.76
5767.22
5764.64
5762.04
5759.41
5756.75
5754.08
5751.38
5748.66
5745.92
5743.16
5740.39
5737.6
5734.79
5731.97
5729.14
5726.29
5723.44
5720.57
5717.69
5714.81
5711.91
5709
5706.08
5703.15
5700.2
5697.23
5694.24
5691.23
5688.19
5685.12
5682.03
5678.89
5675.72
5672.5
5669.23
5665.91
5662.52
5659.07
5655.55
5651.94
5648.24
5644.43
5640.5
5636.45
5632.23
5627.84
5623.24
5618.39
5613.22
5607.66
5601.6
5594.86
5587.27
5578.8
5570.02
5561.24
5552.66
5544.38
5536.51
5529.21
5522.8
5518.05
5510.66
5511.83
5475.16
5435.43
5405.34
5384.03
5367.14
5352.36
5342.35
5329.5
5313.31
5292.97
5274.68
5263.77
5247.32
5238.39
5232.37
5227.94
5224.63
5222.24
5220.69
5219.92
5906.71
5906.31
5905.54
5904.46
5903.16
5901.69
5900.11
5898.45
5896.75
5895.03
5893.28
5891.53
5889.77
5888.01
5886.23
5884.44
5882.63
5880.8
5878.95
5877.07
5875.15
5873.2
5871.22
5869.19
5867.12
5865.01
5862.85
5860.66
5858.44
5856.18
5853.88
5851.56
5849.22
5846.85
5844.45
5842.04
5839.6
5837.16
5834.69
5832.22
5829.75
5827.27
5824.8
5822.33
5819.87
5817.42
5814.99
5812.57
5810.17
5807.78
5805.41
5803.06
5800.72
5798.39
5796.06
5793.74
5791.42
5789.09
5786.74
5784.39
5782.01
5779.61
5777.19
5774.73
5772.25
5769.74
5767.19
5764.61
5762.01
5759.37
5756.72
5754.03
5751.33
5748.61
5745.86
5743.1
5740.32
5737.53
5734.72
5731.89
5729.05
5726.21
5723.35
5720.48
5717.61
5714.73
5711.84
5708.94
5706.03
5703.11
5700.18
5697.23
5694.26
5691.27
5688.26
5685.22
5682.16
5679.06
5675.93
5672.75
5669.53
5666.26
5662.94
5659.56
5656.12
5652.6
5649
5645.32
5641.53
5637.63
5633.61
5629.43
5625.08
5620.51
5615.68
5610.49
5604.81
5598.37
5590.7
5581.29
5571.82
5562.7
5554.05
5545.95
5538.53
5532.03
5526.86
5523.75
5520.11
5516.23
5482.78
5433.66
5396.8
5371.74
5351.7
5335.81
5323.83
5311.25
5302.01
5285.04
5267
5244.52
5228.89
5225.18
5221.57
5218.52
5216.07
5214.24
5213.03
5212.42
5903.46
5903.15
5902.54
5901.68
5900.61
5899.38
5898.03
5896.6
5895.1
5893.56
5891.99
5890.39
5888.76
5887.12
5885.45
5883.77
5882.05
5880.3
5878.52
5876.7
5874.84
5872.94
5870.99
5868.99
5866.94
5864.85
5862.71
5860.52
5858.3
5856.04
5853.74
5851.42
5849.06
5846.68
5844.28
5841.86
5839.41
5836.95
5834.47
5831.98
5829.49
5826.99
5824.5
5822.02
5819.55
5817.09
5814.65
5812.23
5809.84
5807.46
5805.1
5802.76
5800.44
5798.13
5795.83
5793.53
5791.23
5788.93
5786.61
5784.28
5781.92
5779.55
5777.14
5774.7
5772.22
5769.71
5767.17
5764.59
5761.98
5759.34
5756.67
5753.99
5751.28
5748.55
5745.8
5743.03
5740.24
5737.44
5734.63
5731.8
5728.96
5726.11
5723.25
5720.38
5717.51
5714.63
5711.75
5708.86
5705.97
5703.06
5700.15
5697.22
5694.28
5691.32
5688.33
5685.33
5682.3
5679.24
5676.15
5673.02
5669.86
5666.65
5663.4
5660.09
5656.73
5653.32
5649.83
5646.28
5642.65
5638.92
5635.1
5631.17
5627.11
5622.88
5618.47
5613.8
5608.75
5603.04
5595.8
5583.79
5573.23
5563.65
5554.86
5546.82
5539.61
5533.47
5528.83
5526.62
5524.51
5518.68
5476.01
5419.74
5376.5
5343.26
5317.68
5299.15
5286.53
5277.55
5273.77
5258.4
5233.61
5212.12
5212.79
5211.82
5210.2
5208.45
5206.87
5205.61
5204.73
5204.29
5900.43
5900.18
5899.69
5899
5898.12
5897.09
5895.95
5894.71
5893.4
5892.04
5890.63
5889.19
5887.7
5886.19
5884.64
5883.06
5881.44
5879.77
5878.07
5876.32
5874.52
5872.67
5870.76
5868.79
5866.77
5864.69
5862.56
5860.38
5858.15
5855.89
5853.59
5851.26
5848.9
5846.51
5844.09
5841.66
5839.19
5836.71
5834.22
5831.71
5829.19
5826.68
5824.17
5821.67
5819.18
5816.72
5814.27
5811.85
5809.45
5807.08
5804.74
5802.41
5800.11
5797.83
5795.55
5793.29
5791.02
5788.75
5786.46
5784.16
5781.83
5779.48
5777.09
5774.66
5772.2
5769.69
5767.15
5764.57
5761.95
5759.3
5756.63
5753.93
5751.22
5748.48
5745.72
5742.95
5740.16
5737.35
5734.53
5731.69
5728.84
5725.99
5723.12
5720.26
5717.39
5714.52
5711.65
5708.77
5705.89
5703
5700.11
5697.21
5694.29
5691.36
5688.41
5685.44
5682.44
5679.43
5676.38
5673.31
5670.2
5667.06
5663.88
5660.65
5657.39
5654.08
5650.71
5647.3
5643.82
5640.29
5636.69
5633.02
5629.26
5625.42
5621.48
5617.44
5613.31
5609.19
5605.55
5594.66
5578.72
5565.86
5555.31
5546.79
5539.24
5532.58
5528.33
5527.41
5526.05
5501.77
5446.37
5392.87
5346.22
5307.2
5276.72
5256.75
5245.91
5238.95
5231.36
5214.86
5194.45
5191.99
5197.67
5199.08
5198.93
5198.19
5197.33
5196.55
5195.98
5195.68
5897.55
5897.35
5896.96
5896.39
5895.67
5894.82
5893.86
5892.8
5891.68
5890.49
5889.24
5887.95
5886.61
5885.22
5883.8
5882.32
5880.8
5879.23
5877.61
5875.94
5874.2
5872.4
5870.54
5868.61
5866.61
5864.55
5862.42
5860.24
5858.01
5855.73
5853.42
5851.08
5848.72
5846.32
5843.9
5841.44
5838.96
5836.46
5833.94
5831.4
5828.86
5826.32
5823.79
5821.27
5818.77
5816.28
5813.83
5811.4
5809.01
5806.65
5804.32
5802.02
5799.74
5797.49
5795.25
5793.02
5790.79
5788.55
5786.3
5784.04
5781.74
5779.42
5777.05
5774.64
5772.19
5769.69
5767.14
5764.55
5761.93
5759.27
5756.58
5753.88
5751.15
5748.41
5745.64
5742.86
5740.06
5737.24
5734.41
5731.57
5728.71
5725.85
5722.98
5720.11
5717.25
5714.38
5711.52
5708.66
5705.79
5702.93
5700.06
5697.18
5694.29
5691.39
5688.47
5685.54
5682.59
5679.62
5676.62
5673.6
5670.55
5667.48
5664.37
5661.23
5658.06
5654.86
5651.62
5648.35
5645.04
5641.7
5638.32
5634.92
5631.49
5628.03
5624.57
5621.14
5617.81
5614.79
5612.56
5608.3
5592.68
5573.73
5557.01
5544.05
5535.83
5531.34
5528.27
5526.8
5524.94
5479
5414.98
5359.15
5308.31
5262.58
5225.27
5205.22
5201.42
5200.98
5198.17
5188.85
5182.53
5184.85
5186.78
5187.9
5188.21
5188.04
5187.66
5187.26
5186.94
5186.76
5894.77
5894.61
5894.3
5893.84
5893.26
5892.56
5891.77
5890.89
5889.93
5888.91
5887.82
5886.68
5885.49
5884.24
5882.94
5881.58
5880.16
5878.69
5877.16
5875.56
5873.89
5872.15
5870.34
5868.44
5866.47
5864.42
5862.3
5860.11
5857.86
5855.58
5853.25
5850.9
5848.53
5846.12
5843.69
5841.22
5838.72
5836.19
5833.64
5831.07
5828.5
5825.93
5823.36
5820.82
5818.29
5815.79
5813.33
5810.9
5808.5
5806.15
5803.84
5801.56
5799.32
5797.1
5794.9
5792.71
5790.53
5788.34
5786.14
5783.91
5781.66
5779.36
5777.03
5774.64
5772.2
5769.7
5767.15
5764.55
5761.9
5759.23
5756.53
5753.81
5751.08
5748.32
5745.55
5742.76
5739.96
5737.13
5734.28
5731.43
5728.56
5725.68
5722.81
5719.94
5717.07
5714.22
5711.36
5708.52
5705.67
5702.83
5699.99
5697.13
5694.28
5691.41
5688.53
5685.64
5682.73
5679.8
5676.86
5673.9
5670.91
5667.9
5664.88
5661.82
5658.75
5655.65
5652.54
5649.41
5646.27
5643.12
5639.97
5636.82
5633.7
5630.62
5627.61
5624.7
5621.97
5619.52
5617.62
5616.03
5598.09
5573.89
5556.61
5541.02
5529.49
5520.15
5511.3
5500.64
5481.57
5430.45
5375.44
5320.43
5265.3
5209.55
5156.55
5137.46
5153.56
5165.37
5171.49
5170.78
5172.36
5175.78
5176.68
5177.48
5177.93
5178.07
5178.01
5177.86
5177.72
5177.63
5892.05
5891.92
5891.68
5891.33
5890.88
5890.32
5889.69
5888.97
5888.18
5887.32
5886.39
5885.41
5884.36
5883.24
5882.07
5880.83
5879.53
5878.16
5876.72
5875.2
5873.61
5871.93
5870.17
5868.32
5866.37
5864.33
5862.2
5859.99
5857.72
5855.41
5853.07
5850.71
5848.33
5845.92
5843.48
5841
5838.47
5835.91
5833.32
5830.71
5828.1
5825.48
5822.89
5820.31
5817.76
5815.24
5812.76
5810.32
5807.92
5805.58
5803.29
5801.04
5798.84
5796.66
5794.51
5792.38
5790.25
5788.11
5785.96
5783.79
5781.58
5779.33
5777.03
5774.66
5772.24
5769.74
5767.18
5764.56
5761.89
5759.19
5756.47
5753.74
5750.99
5748.23
5745.46
5742.66
5739.84
5737
5734.15
5731.27
5728.39
5725.5
5722.61
5719.74
5716.87
5714.02
5711.18
5708.35
5705.53
5702.71
5699.89
5697.07
5694.25
5691.42
5688.58
5685.72
5682.86
5679.99
5677.09
5674.19
5671.27
5668.33
5665.38
5662.41
5659.43
5656.44
5653.45
5650.46
5647.47
5644.51
5641.57
5638.68
5635.85
5633.11
5630.5
5628.05
5625.79
5623.62
5620.85
5620.29
5605.2
5577.71
5554.52
5533.91
5515.56
5498.16
5479.93
5458.28
5428.84
5385.82
5335.89
5281.82
5222.9
5153.78
5096.51
5085.01
5110
5135.47
5151.89
5159.19
5162.67
5165.91
5166.64
5167.4
5167.95
5168.27
5168.41
5168.44
5168.42
5168.4
5889.36
5889.27
5889.09
5888.84
5888.5
5888.09
5887.6
5887.04
5886.42
5885.72
5884.96
5884.13
5883.22
5882.25
5881.21
5880.1
5878.91
5877.65
5876.3
5874.88
5873.37
5871.76
5870.05
5868.24
5866.32
5864.28
5862.14
5859.9
5857.59
5855.24
5852.88
5850.5
5848.12
5845.71
5843.27
5840.78
5838.23
5835.63
5832.99
5830.33
5827.66
5825
5822.36
5819.75
5817.17
5814.62
5812.11
5809.66
5807.26
5804.93
5802.66
5800.45
5798.29
5796.17
5794.08
5792.01
5789.94
5787.87
5785.78
5783.67
5781.52
5779.32
5777.05
5774.72
5772.31
5769.82
5767.24
5764.59
5761.88
5759.14
5756.4
5753.65
5750.89
5748.13
5745.35
5742.55
5739.73
5736.87
5734
5731.1
5728.19
5725.28
5722.38
5719.49
5716.63
5713.78
5710.96
5708.15
5705.36
5702.57
5699.78
5696.99
5694.2
5691.41
5688.61
5685.8
5682.98
5680.16
5677.32
5674.47
5671.61
5668.75
5665.87
5662.98
5660.1
5657.21
5654.33
5651.47
5648.64
5645.85
5643.11
5640.44
5637.88
5635.45
5633.2
5631.18
5629.47
5628.24
5625.51
5623.84
5607.45
5577.26
5549.84
5524.56
5500.67
5476.99
5452
5423.71
5389.71
5348.11
5300.48
5248.05
5190.73
5126.78
5086.25
5081.07
5090.01
5114.62
5136.97
5148.67
5150.52
5155.5
5156.56
5157.49
5158.17
5158.62
5158.89
5159.03
5159.09
5159.12
5886.67
5886.61
5886.5
5886.34
5886.12
5885.85
5885.51
5885.12
5884.66
5884.13
5883.53
5882.85
5882.1
5881.27
5880.37
5879.38
5878.31
5877.16
5875.92
5874.59
5873.17
5871.64
5869.99
5868.23
5866.33
5864.3
5862.13
5859.83
5857.45
5855.05
5852.65
5850.27
5847.89
5845.51
5843.07
5840.57
5838
5835.35
5832.65
5829.91
5827.17
5824.45
5821.77
5819.12
5816.5
5813.92
5811.39
5808.91
5806.51
5804.19
5801.95
5799.78
5797.68
5795.62
5793.61
5791.61
5789.62
5787.62
5785.6
5783.56
5781.47
5779.33
5777.13
5774.84
5772.45
5769.95
5767.34
5764.64
5761.87
5759.08
5756.3
5753.53
5750.77
5748.02
5745.25
5742.44
5739.61
5736.74
5733.84
5730.92
5727.98
5725.04
5722.11
5719.21
5716.34
5713.5
5710.7
5707.91
5705.15
5702.39
5699.64
5696.89
5694.14
5691.38
5688.62
5685.86
5683.09
5680.31
5677.53
5674.74
5671.95
5669.15
5666.34
5663.54
5660.74
5657.95
5655.18
5652.44
5649.74
5647.1
5644.54
5642.08
5639.75
5637.59
5635.63
5633.95
5632.63
5631.79
5630.13
5627.06
5607.84
5574.03
5543.02
5513.83
5485.55
5457.14
5427.38
5394.86
5358.17
5316.41
5269.87
5219.17
5165.17
5110.11
5079.92
5076.94
5075.76
5096.04
5124.62
5139.41
5139.8
5144.45
5146.56
5147.8
5148.6
5149.14
5149.47
5149.68
5149.79
5149.83
5883.96
5883.93
5883.89
5883.82
5883.72
5883.59
5883.42
5883.19
5882.9
5882.55
5882.11
5881.6
5881
5880.32
5879.55
5878.7
5877.75
5876.72
5875.59
5874.36
5873.03
5871.59
5870.02
5868.31
5866.45
5864.42
5862.21
5859.81
5857.32
5854.81
5852.37
5849.99
5847.65
5845.31
5842.91
5840.42
5837.8
5835.09
5832.3
5829.47
5826.63
5823.84
5821.11
5818.43
5815.77
5813.15
5810.57
5808.06
5805.64
5803.33
5801.13
5799.02
5796.98
5795.01
5793.08
5791.17
5789.26
5787.35
5785.42
5783.46
5781.46
5779.39
5777.25
5775.02
5772.67
5770.17
5767.52
5764.73
5761.87
5758.99
5756.16
5753.38
5750.63
5747.9
5745.14
5742.35
5739.5
5736.61
5733.68
5730.72
5727.74
5724.75
5721.79
5718.86
5715.99
5713.16
5710.38
5707.64
5704.91
5702.19
5699.48
5696.77
5694.05
5691.34
5688.62
5685.9
5683.18
5680.45
5677.72
5674.99
5672.26
5669.52
5666.79
5664.06
5661.34
5658.64
5655.96
5653.33
5650.75
5648.25
5645.84
5643.56
5641.43
5639.48
5637.76
5636.32
5635.23
5634.6
5633.55
5629.01
5604.66
5568
5534.38
5502.2
5470.57
5438.65
5405.51
5370.17
5331.71
5289.5
5243.42
5193.59
5140.68
5091.94
5072.94
5072.75
5072.06
5087.16
5115.31
5130.96
5134.16
5135.92
5137.41
5138.51
5139.28
5139.82
5140.17
5140.39
5140.51
5140.57
5881.19
5881.2
5881.22
5881.25
5881.29
5881.31
5881.3
5881.26
5881.15
5880.98
5880.72
5880.37
5879.93
5879.4
5878.77
5878.05
5877.23
5876.32
5875.31
5874.19
5872.97
5871.62
5870.14
5868.5
5866.69
5864.68
5862.43
5859.85
5857.16
5854.46
5851.99
5849.64
5847.37
5845.13
5842.81
5840.34
5837.68
5834.87
5831.96
5828.99
5826.01
5823.15
5820.38
5817.67
5814.97
5812.3
5809.65
5807.08
5804.64
5802.34
5800.18
5798.14
5796.2
5794.32
5792.5
5790.69
5788.89
5787.08
5785.25
5783.38
5781.47
5779.5
5777.45
5775.29
5773
5770.51
5767.8
5764.87
5761.84
5758.83
5755.94
5753.16
5750.45
5747.77
5745.06
5742.27
5739.41
5736.5
5733.53
5730.52
5727.48
5724.43
5721.4
5718.44
5715.56
5712.76
5710.01
5707.31
5704.63
5701.96
5699.29
5696.62
5693.94
5691.27
5688.59
5685.92
5683.24
5680.57
5677.89
5675.22
5672.55
5669.88
5667.21
5664.55
5661.9
5659.28
5656.68
5654.14
5651.66
5649.27
5647
5644.86
5642.88
5641.1
5639.56
5638.29
5637.34
5636.79
5636.16
5623.86
5593.4
5558.95
5524.29
5490.01
5455.87
5421.37
5385.85
5348.6
5308.98
5266.48
5220.71
5171.09
5115.98
5076.25
5069.53
5069.2
5069.63
5079.9
5106.17
5122.97
5126.74
5127.62
5128.64
5129.51
5130.17
5130.65
5130.97
5131.17
5131.29
5131.34
5878.33
5878.38
5878.48
5878.62
5878.79
5878.98
5879.16
5879.32
5879.41
5879.43
5879.36
5879.18
5878.91
5878.52
5878.04
5877.45
5876.76
5875.98
5875.09
5874.09
5872.98
5871.75
5870.37
5868.83
5867.11
5865.13
5862.95
5859.95
5856.97
5853.85
5851.46
5849.17
5847.05
5844.98
5842.83
5840.44
5837.66
5834.72
5831.66
5828.48
5825.25
5822.32
5819.56
5816.85
5814.13
5811.38
5808.63
5805.95
5803.46
5801.18
5799.09
5797.15
5795.32
5793.57
5791.86
5790.18
5788.5
5786.8
5785.08
5783.32
5781.52
5779.66
5777.72
5775.68
5773.49
5771.06
5768.28
5765.07
5761.78
5758.53
5755.59
5752.84
5750.22
5747.65
5745.01
5742.24
5739.36
5736.41
5733.39
5730.32
5727.2
5724.05
5720.91
5717.91
5715.03
5712.26
5709.58
5706.94
5704.32
5701.7
5699.08
5696.45
5693.81
5691.17
5688.53
5685.91
5683.28
5680.66
5678.04
5675.42
5672.81
5670.2
5667.59
5665
5662.42
5659.85
5657.33
5654.85
5652.45
5650.15
5647.98
5645.96
5644.11
5642.47
5641.05
5639.9
5639.01
5638.41
5637.87
5620.81
5586.12
5550.11
5513.83
5477.67
5441.55
5405.12
5367.91
5329.41
5289.14
5246.73
5201.84
5154.09
5102.62
5071.26
5067.41
5067.03
5067.86
5078.19
5101.57
5114.37
5118.47
5119.17
5119.98
5120.68
5121.23
5121.61
5121.86
5122.02
5122.1
5122.13
5875.36
5875.45
5875.62
5875.88
5876.21
5876.59
5877
5877.37
5877.69
5877.92
5878.04
5878.05
5877.93
5877.7
5877.36
5876.91
5876.35
5875.69
5874.93
5874.06
5873.09
5871.98
5870.73
5869.28
5867.73
5865.73
5864.25
5860.87
5855.98
5852.49
5850.78
5848.49
5846.63
5844.88
5843.05
5840.88
5837.78
5834.67
5831.44
5827.97
5824.17
5821.27
5818.65
5816.02
5813.29
5810.43
5807.49
5804.61
5802.04
5799.8
5797.81
5796
5794.33
5792.73
5791.18
5789.64
5788.09
5786.52
5784.92
5783.27
5781.59
5779.86
5778.08
5776.21
5774.19
5771.91
5769.16
5765.34
5761.65
5757.88
5755.04
5752.36
5749.92
5747.56
5745.09
5742.28
5739.35
5736.35
5733.29
5730.16
5726.93
5723.62
5720.28
5717.23
5714.36
5711.66
5709.07
5706.52
5703.98
5701.43
5698.85
5696.26
5693.65
5691.04
5688.45
5685.86
5683.29
5680.72
5678.16
5675.6
5673.04
5670.48
5667.94
5665.4
5662.88
5660.37
5657.89
5655.46
5653.11
5650.88
5648.78
5646.84
5645.1
5643.56
5642.25
5641.19
5640.33
5639.43
5638.89
5618.98
5580.17
5541.54
5503.25
5465.3
5427.53
5389.64
5351.26
5311.98
5271.46
5229.44
5185.83
5140.8
5094.9
5069.34
5066.61
5066.72
5067.48
5070.5
5090.5
5104.51
5109.67
5110.58
5111.39
5112
5112.42
5112.68
5112.83
5112.9
5112.93
5112.94
5872.23
5872.36
5872.62
5873.01
5873.52
5874.13
5874.79
5875.44
5876.01
5876.47
5876.79
5876.98
5877.03
5876.95
5876.75
5876.43
5876
5875.47
5874.84
5874.11
5873.27
5872.33
5871.22
5869.8
5868.77
5867.48
5865.21
5860.24
5855.3
5851.98
5849.38
5847.36
5846.08
5844.83
5843.59
5842.21
5839.88
5836.15
5830.64
5825.72
5822.15
5819.9
5817.71
5815.27
5812.54
5809.52
5806.26
5802.91
5800.26
5798.13
5796.31
5794.71
5793.23
5791.82
5790.45
5789.07
5787.68
5786.24
5784.76
5783.24
5781.68
5780.1
5778.49
5776.84
5775.12
5773.22
5771.08
5766.75
5760.66
5756.29
5754.29
5751.62
5749.51
5747.57
5745.47
5742.43
5739.38
5736.33
5733.24
5730.05
5726.73
5723.19
5719.32
5716.36
5713.5
5710.93
5708.49
5706.08
5703.63
5701.15
5698.62
5696.05
5693.46
5690.88
5688.32
5685.79
5683.27
5680.76
5678.25
5675.74
5673.23
5670.74
5668.25
5665.77
5663.3
5660.83
5658.37
5655.96
5653.63
5651.43
5649.38
5647.51
5645.84
5644.38
5643.16
5642.23
5641.64
5640.59
5639.43
5616.85
5574.06
5532.64
5492.31
5452.75
5413.64
5374.67
5335.49
5295.79
5255.28
5213.75
5171.23
5128.38
5088.13
5068.39
5066.4
5066.44
5066.94
5068.96
5085.6
5096.43
5100.36
5102.06
5102.97
5103.47
5103.73
5103.84
5103.84
5103.81
5103.76
5103.73
5868.91
5869.08
5869.42
5869.95
5870.67
5871.55
5872.54
5873.51
5874.38
5875.1
5875.64
5876
5876.21
5876.27
5876.2
5876.01
5875.71
5875.31
5874.81
5874.22
5873.52
5872.79
5872
5871.03
5869.64
5865.49
5860.88
5856.14
5852.65
5849.99
5848.27
5846.56
5845.46
5844.75
5844.23
5843.54
5840.11
5834.71
5828.98
5824.06
5820.5
5818.46
5816.98
5814.77
5812.05
5808.84
5805.07
5800.49
5797.94
5796.1
5794.58
5793.25
5792.03
5790.85
5789.69
5788.5
5787.28
5785.98
5784.63
5783.22
5781.78
5780.33
5778.91
5777.54
5776.2
5774.73
5773.2
5767.85
5759.82
5755.3
5752.61
5750.29
5748.91
5747.72
5746.75
5744.93
5740.71
5735.99
5733.73
5730.14
5725.45
5720.79
5717.44
5715.34
5712.31
5710.04
5707.87
5705.63
5703.3
5700.89
5698.39
5695.84
5693.25
5690.66
5688.14
5685.67
5683.22
5680.76
5678.31
5675.85
5673.4
5670.95
5668.52
5666.1
5663.68
5661.24
5658.77
5656.34
5653.99
5651.78
5649.77
5647.95
5646.33
5644.91
5643.75
5642.89
5642.38
5641.59
5639.61
5613.25
5566.56
5522.67
5480.6
5439.73
5399.61
5359.89
5320.26
5280.42
5240.1
5199.05
5156.96
5113.37
5078.35
5066.78
5066.13
5066.16
5066.18
5067.6
5082.49
5091.85
5093.26
5094.32
5094.91
5095.17
5095.18
5095.06
5094.88
5094.69
5094.54
5094.46
5865.36
5865.56
5865.98
5866.64
5867.59
5868.82
5870.24
5871.64
5872.86
5873.85
5874.6
5875.14
5875.5
5875.69
5875.74
5875.67
5875.49
5875.21
5874.85
5874.38
5873.76
5873.28
5872.65
5868.56
5863.59
5857.82
5853.46
5849.94
5847.44
5845.95
5845.6
5845.92
5844.99
5844.44
5844.33
5843.83
5839.33
5832.22
5826.01
5820.96
5817.64
5816.17
5816.04
5814.41
5811.12
5806.07
5800.36
5796.01
5794.87
5793.71
5792.64
5791.67
5790.74
5789.84
5788.92
5787.95
5786.91
5785.76
5784.52
5783.2
5781.85
5780.51
5779.25
5778.16
5777.4
5776.59
5772.74
5764.25
5756.74
5751.8
5749.36
5747.82
5748.09
5747.63
5747.12
5745.43
5740.29
5733.42
5729.82
5726.9
5723.14
5719.73
5716.11
5712.9
5710.32
5709.04
5707.28
5705.25
5703.03
5700.67
5698.2
5695.64
5693.01
5690.35
5687.89
5685.51
5683.13
5680.74
5678.34
5675.93
5673.52
5671.13
5668.75
5666.4
5664.05
5661.65
5659.1
5656.6
5654.18
5651.9
5649.93
5648.17
5646.57
5645.15
5643.98
5643.12
5642.63
5641.89
5638.96
5606.01
5556.26
5510.86
5467.71
5425.97
5385.19
5345.03
5305.22
5265.52
5225.67
5185.39
5144.2
5101.14
5072.08
5066.13
5065.82
5065.9
5066
5066.77
5077.65
5085.89
5086.5
5087
5087.18
5087.07
5086.75
5086.32
5085.89
5085.51
5085.23
5085.09
5861.55
5861.76
5862.22
5862.99
5864.17
5865.84
5867.92
5869.9
5871.53
5872.78
5873.73
5874.42
5874.9
5875.21
5875.36
5875.39
5875.32
5875.16
5874.94
5874.66
5874.26
5872.88
5867.1
5859.23
5853.52
5848.78
5845.22
5842.7
5841.23
5840.76
5841.41
5843.36
5844.21
5844.18
5843.74
5842.93
5837.29
5828.84
5821.88
5815.76
5812.3
5813.54
5814.13
5811.19
5804.39
5797.13
5793.92
5792.27
5791.78
5791.19
5790.58
5790
5789.41
5788.82
5788.18
5787.45
5786.61
5785.62
5784.45
5783.19
5781.88
5780.59
5779.39
5778.44
5777.85
5777.46
5771.34
5760.18
5750.87
5743.99
5739.63
5738.9
5742.09
5745.69
5745.65
5741.55
5733.99
5726.86
5723.99
5722.1
5719.28
5716.9
5713.79
5711.13
5709.47
5708.49
5706.93
5705.02
5702.87
5700.54
5698.08
5695.49
5692.75
5689.82
5687.54
5685.31
5683.03
5680.71
5678.35
5675.97
5673.6
5671.25
5668.93
5666.66
5664.43
5662.18
5659.36
5656.74
5654.2
5651.66
5649.84
5648.18
5646.58
5645.08
5643.86
5642.92
5642.38
5641.7
5627.39
5586.87
5541.6
5496.82
5453.39
5411.25
5370.14
5329.83
5290.09
5250.76
5211.68
5172.64
5133.3
5093.04
5068.71
5065.27
5065.42
5065.6
5065.85
5067.2
5072.69
5079.31
5079.81
5079.97
5079.71
5079.14
5078.38
5077.57
5076.82
5076.2
5075.77
5075.55
5857.46
5857.66
5858.1
5858.88
5860.2
5862.37
5865.64
5868.47
5870.5
5871.98
5873.08
5873.88
5874.45
5874.83
5875.07
5875.18
5875.2
5875.15
5875.06
5874.49
5869.51
5863.35
5854.98
5847.83
5842.48
5838.57
5835.92
5834.42
5834.01
5834.47
5835.94
5838.99
5842.38
5841.07
5841.21
5841.01
5833.3
5823.97
5816.9
5811.25
5809.12
5811.34
5811.95
5805.36
5795.37
5788.87
5788.97
5788.86
5788.78
5788.65
5788.48
5788.29
5788.07
5787.82
5787.49
5787.05
5786.43
5785.63
5784.45
5783.19
5781.88
5780.57
5779.24
5778.33
5777.69
5777.04
5769.05
5754.31
5742.56
5733.64
5727.09
5724.49
5726.36
5729.65
5735.09
5732.72
5726.78
5723.09
5721.5
5719.5
5717.27
5715.85
5713.65
5711.36
5709.87
5708.24
5706.59
5704.8
5702.53
5700.13
5697.82
5695.15
5691.69
5688.61
5687.1
5685.12
5682.95
5680.67
5678.34
5675.99
5673.63
5671.31
5669.03
5666.83
5664.82
5663.22
5659.66
5657.09
5653.54
5650.68
5649.54
5648.07
5646.46
5644.68
5643.39
5642.26
5641.6
5640.59
5618.07
5572.48
5526.46
5481.43
5437.79
5395.49
5354.3
5314.04
5274.55
5235.76
5197.64
5160.19
5123.33
5086.66
5066.23
5064.43
5064.85
5065.26
5065.82
5066.9
5068.83
5072.43
5073.44
5073.32
5072.54
5071.38
5070.04
5068.73
5067.58
5066.68
5066.07
5065.76
5853.12
5853.26
5853.57
5854.17
5855.32
5857.74
5863.73
5867.79
5869.99
5871.52
5872.67
5873.53
5874.13
5874.57
5874.86
5875.02
5875.13
5875.14
5870.97
5865.3
5856.91
5849.42
5841.65
5834.64
5829.99
5827.1
5825.49
5825.05
5825.91
5827.17
5828.88
5831.19
5834.2
5833.05
5833.41
5832.25
5824.29
5816.83
5810.5
5805.32
5803.35
5804.71
5803.51
5797.23
5789.3
5784.73
5784.34
5785.48
5785.81
5786.12
5786.37
5786.58
5786.74
5786.85
5786.9
5786.79
5786.41
5785.99
5785.04
5783.37
5781.64
5780.03
5778.67
5777.93
5776.89
5774.65
5764.89
5745.57
5731.41
5720.93
5713.11
5709.99
5709.74
5707.09
5717.24
5727.35
5723.49
5721.68
5721.54
5719.42
5717
5715.24
5713.81
5712.41
5705.25
5699.21
5695.82
5693.11
5690.55
5688.17
5685.9