/*--------------------------------*- C++ -*----------------------------------*\
| =========                 |                                                 |
| \\      /  F ield         | OpenFOAM: The Open Source CFD Toolbox           |
|  \\    /   O peration     | Version:  2.1.0                                 |
|   \\  /    A nd           | Web:      www.OpenFOAM.org                      |
|    \\/     M anipulation  |                                                 |
\*---------------------------------------------------------------------------*/
FoamFile
{
    version     2.0;
    format      ascii;
    class       volScalarField;
    location    "52195";
    object      so;
}
// * * * * * * * * * * * * * * * * * * * * * * * * * * * * * * * * * * * * * //

dimensions      [0 0 0 0 0 0 0];

internalField   nonuniform List<scalar> 
15000
(
0.2
0.200001
0.200001
0.200016
0.200271
0.201744
0.205834
0.212925
0.222175
0.232485
0.24308
0.253532
0.263634
0.273295
0.282483
0.291197
0.29945
0.307259
0.314649
0.321641
0.328262
0.334534
0.340482
0.346128
0.351494
0.356602
0.361471
0.366121
0.370568
0.374829
0.37892
0.382855
0.386648
0.390309
0.393852
0.397286
0.400621
0.403868
0.407036
0.410131
0.41316
0.416131
0.419047
0.421913
0.424734
0.427513
0.430253
0.432957
0.435625
0.43826
0.440862
0.443432
0.44597
0.448474
0.450946
0.453383
0.455785
0.458152
0.460482
0.462774
0.465028
0.467243
0.46942
0.471558
0.473658
0.47572
0.477745
0.479735
0.481691
0.483614
0.485505
0.487365
0.489197
0.491002
0.49278
0.494533
0.496262
0.497969
0.499654
0.501318
0.502963
0.504588
0.506194
0.507783
0.509354
0.510907
0.512443
0.513961
0.515461
0.516943
0.518407
0.519852
0.521278
0.522685
0.52407
0.525434
0.526775
0.528093
0.529386
0.530653
0.531894
0.533106
0.53429
0.535442
0.536564
0.537653
0.538708
0.539729
0.540716
0.541668
0.542584
0.543467
0.544316
0.545132
0.545917
0.546672
0.547399
0.548098
0.548773
0.549425
0.55006
0.550687
0.551318
0.551968
0.552656
0.553401
0.554212
0.555067
0.555886
0.556562
0.557075
0.557446
0.55771
0.557975
0.558242
0.558516
0.558799
0.559092
0.559399
0.559722
0.560067
0.560442
0.560858
0.561333
0.561888
0.562562
0.563415
0.564567
0.566318
0.56988
0.200001
0.200001
0.200003
0.200047
0.200522
0.202605
0.207499
0.215187
0.224701
0.235037
0.245537
0.255849
0.265801
0.275318
0.284377
0.292976
0.301127
0.308848
0.31616
0.323084
0.329645
0.335863
0.341763
0.347366
0.352693
0.357765
0.3626
0.367218
0.371635
0.375869
0.379933
0.383843
0.387612
0.391251
0.394771
0.398184
0.4015
0.404728
0.407876
0.410953
0.413965
0.416918
0.419817
0.422667
0.425472
0.428236
0.430962
0.433652
0.436308
0.438931
0.441523
0.444083
0.446611
0.449108
0.451572
0.454004
0.456401
0.458764
0.46109
0.463379
0.46563
0.467843
0.470017
0.472153
0.47425
0.476311
0.478334
0.480322
0.482275
0.484196
0.486085
0.487943
0.489773
0.491575
0.493351
0.495102
0.496829
0.498534
0.500217
0.501879
0.503522
0.505146
0.506751
0.508339
0.509909
0.511462
0.512998
0.514517
0.516018
0.517502
0.518969
0.520417
0.521848
0.523259
0.524651
0.526023
0.527374
0.528703
0.530009
0.531292
0.53255
0.533783
0.534989
0.53617
0.537322
0.538448
0.539546
0.540616
0.54166
0.542679
0.543673
0.544646
0.5456
0.546537
0.547462
0.548375
0.549278
0.550173
0.551058
0.551938
0.552821
0.55373
0.554697
0.555775
0.557031
0.558541
0.560366
0.562462
0.564512
0.566001
0.566962
0.567514
0.567771
0.567921
0.567969
0.567937
0.567869
0.567783
0.567666
0.567497
0.567265
0.566985
0.566687
0.566413
0.56621
0.566131
0.566247
0.566681
0.56773
0.570604
0.200001
0.200003
0.200017
0.200195
0.201231
0.204389
0.210368
0.218698
0.228402
0.238658
0.248961
0.259041
0.268766
0.278076
0.28695
0.295389
0.3034
0.310999
0.318203
0.325034
0.331511
0.337655
0.343487
0.349028
0.354299
0.359317
0.364103
0.368674
0.373047
0.377239
0.381264
0.385135
0.388867
0.392471
0.395957
0.399337
0.402621
0.405819
0.408938
0.411986
0.41497
0.417896
0.420769
0.423593
0.426375
0.429116
0.43182
0.43449
0.437127
0.439734
0.44231
0.444856
0.447373
0.449859
0.452314
0.454738
0.457129
0.459486
0.461807
0.464092
0.46634
0.46855
0.470721
0.472854
0.474949
0.477006
0.479026
0.481011
0.482961
0.484878
0.486763
0.488617
0.490443
0.492241
0.494013
0.49576
0.497483
0.499184
0.500864
0.502523
0.504162
0.505783
0.507386
0.508972
0.510541
0.512093
0.513628
0.515148
0.516651
0.518137
0.519606
0.521059
0.522495
0.523914
0.525315
0.526697
0.528059
0.529403
0.530726
0.532028
0.533309
0.534568
0.535805
0.53702
0.538213
0.539386
0.540539
0.541673
0.542791
0.543897
0.544994
0.546088
0.547184
0.54829
0.549413
0.55056
0.551736
0.552945
0.554183
0.555443
0.556734
0.558094
0.559593
0.561343
0.563494
0.566238
0.569756
0.574063
0.578291
0.580689
0.582021
0.582693
0.582927
0.582847
0.582447
0.581771
0.581014
0.580236
0.579383
0.57837
0.577156
0.575782
0.574325
0.57288
0.571541
0.570392
0.569519
0.569044
0.569262
0.571374
0.200015
0.200045
0.200189
0.200868
0.203036
0.207623
0.214672
0.223469
0.233189
0.243232
0.253237
0.263008
0.272444
0.281496
0.290144
0.298385
0.306225
0.313675
0.320749
0.327465
0.333839
0.33989
0.345638
0.351101
0.356299
0.361249
0.365971
0.370481
0.374796
0.378933
0.382904
0.386725
0.390408
0.393964
0.397406
0.400742
0.403983
0.407139
0.410218
0.413227
0.416173
0.419061
0.421899
0.424689
0.427438
0.430148
0.432824
0.435467
0.43808
0.440664
0.443221
0.445749
0.448251
0.450724
0.453168
0.455583
0.457966
0.460317
0.462634
0.464915
0.467159
0.469365
0.471533
0.473663
0.475754
0.477807
0.479823
0.481803
0.483749
0.48566
0.487539
0.489388
0.491208
0.493001
0.494767
0.496509
0.498226
0.499922
0.501596
0.50325
0.504885
0.506502
0.508101
0.509684
0.51125
0.5128
0.514335
0.515855
0.517359
0.518848
0.520322
0.52178
0.523222
0.524649
0.52606
0.527454
0.528832
0.530192
0.531535
0.532861
0.534168
0.535459
0.536732
0.53799
0.539232
0.540462
0.541681
0.542893
0.544102
0.545316
0.546541
0.547787
0.549068
0.550398
0.551797
0.553288
0.55489
0.556621
0.558465
0.560359
0.562279
0.564279
0.566483
0.569079
0.572334
0.576591
0.582231
0.589601
0.596669
0.598939
0.600087
0.600659
0.600858
0.600546
0.599615
0.598011
0.59638
0.594862
0.593267
0.591352
0.588985
0.586269
0.583353
0.580419
0.577645
0.575169
0.573103
0.571574
0.570867
0.572174
0.200246
0.200483
0.201168
0.202966
0.206672
0.212605
0.220388
0.229348
0.238887
0.248598
0.258228
0.267636
0.276741
0.285501
0.293894
0.301913
0.30956
0.316841
0.323767
0.330351
0.336606
0.34255
0.3482
0.353571
0.358683
0.363553
0.368197
0.372633
0.376878
0.380946
0.384853
0.388611
0.392234
0.395732
0.399116
0.402397
0.405586
0.40869
0.411718
0.414677
0.417575
0.420416
0.423208
0.425955
0.428663
0.431334
0.433973
0.436583
0.439165
0.441722
0.444254
0.446761
0.449244
0.451702
0.454134
0.456539
0.458914
0.461258
0.46357
0.465846
0.468087
0.47029
0.472455
0.474581
0.476668
0.478717
0.480728
0.482702
0.484641
0.486545
0.488418
0.490259
0.492072
0.493857
0.495615
0.49735
0.49906
0.500748
0.502416
0.504063
0.505692
0.507303
0.508897
0.510475
0.512038
0.513586
0.51512
0.51664
0.518145
0.519637
0.521115
0.522578
0.524028
0.525465
0.526887
0.528296
0.52969
0.53107
0.532436
0.533789
0.535128
0.536454
0.53777
0.539076
0.540375
0.54167
0.542966
0.544269
0.545586
0.546927
0.548305
0.549739
0.551253
0.552878
0.55466
0.556656
0.558933
0.561555
0.564479
0.567377
0.570141
0.572871
0.575776
0.579143
0.583346
0.588871
0.596295
0.606762
0.615316
0.615613
0.616395
0.616752
0.616962
0.616696
0.615624
0.613036
0.6107
0.608905
0.607101
0.604739
0.601453
0.597483
0.593087
0.588527
0.584141
0.580181
0.576805
0.574148
0.572482
0.572983
0.201576
0.202395
0.204129
0.207351
0.212411
0.219198
0.227259
0.236092
0.245294
0.254589
0.2638
0.272815
0.281568
0.290018
0.29814
0.305923
0.313364
0.320464
0.32723
0.33367
0.339797
0.345623
0.351163
0.356433
0.361448
0.366225
0.37078
0.375131
0.379293
0.383282
0.387112
0.390796
0.394346
0.397775
0.401093
0.404309
0.407434
0.410476
0.413443
0.416342
0.41918
0.421965
0.424701
0.427395
0.430051
0.432675
0.435269
0.437838
0.440383
0.442907
0.44541
0.447892
0.450354
0.452794
0.455212
0.457605
0.459972
0.462309
0.464616
0.466889
0.469126
0.471326
0.473488
0.475611
0.477694
0.479737
0.481742
0.48371
0.485641
0.487537
0.489401
0.491233
0.493037
0.494812
0.496562
0.498286
0.499988
0.501667
0.503326
0.504965
0.506585
0.508189
0.509776
0.511349
0.512907
0.514452
0.515984
0.517503
0.519009
0.520504
0.521986
0.523456
0.524914
0.526361
0.527796
0.529221
0.530634
0.532036
0.533428
0.534811
0.536185
0.537552
0.538914
0.540275
0.541637
0.543007
0.54439
0.545795
0.547235
0.548723
0.550283
0.551943
0.553747
0.555756
0.558061
0.56079
0.564121
0.56827
0.573141
0.577421
0.581035
0.584297
0.587579
0.591269
0.595805
0.60171
0.609588
0.621749
0.62603
0.634429
0.6422
0.651458
0.657928
0.654478
0.642375
0.618775
0.617234
0.616582
0.615858
0.614426
0.611384
0.607122
0.602035
0.596193
0.590328
0.584955
0.580329
0.576598
0.574026
0.573777
0.205288
0.2069
0.209727
0.21405
0.219878
0.226963
0.234934
0.243442
0.252214
0.261055
0.26983
0.278447
0.286844
0.294979
0.302827
0.31037
0.3176
0.324514
0.331114
0.337406
0.343398
0.349099
0.354523
0.359683
0.364592
0.369267
0.373723
0.377978
0.382046
0.385945
0.389686
0.393286
0.396755
0.400105
0.403346
0.406487
0.409539
0.412508
0.415403
0.41823
0.420998
0.423714
0.426383
0.429013
0.431608
0.434175
0.436716
0.439235
0.441736
0.44422
0.446689
0.449142
0.451579
0.454
0.456402
0.458783
0.461141
0.463472
0.465775
0.468045
0.47028
0.472478
0.474638
0.476757
0.478836
0.480875
0.482873
0.484833
0.486755
0.488641
0.490494
0.492316
0.494108
0.495872
0.497611
0.499324
0.501014
0.502683
0.50433
0.505959
0.507569
0.509163
0.510743
0.512308
0.51386
0.5154
0.516929
0.518447
0.519954
0.521451
0.522938
0.524414
0.525881
0.527339
0.528788
0.53023
0.531663
0.53309
0.53451
0.535926
0.537338
0.53875
0.540164
0.541584
0.543017
0.544468
0.545947
0.547467
0.549044
0.550702
0.552472
0.554403
0.556564
0.559062
0.562057
0.565801
0.570687
0.577358
0.585722
0.591331
0.595296
0.598507
0.60155
0.604866
0.608857
0.613936
0.620523
0.632553
0.660848
0.793299
0.799729
0.799995
0.795243
0.722042
0.72321
0.721024
0.705112
0.690779
0.668251
0.645302
0.616528
0.613056
0.608811
0.602267
0.595326
0.58891
0.583331
0.578744
0.575418
0.57453
0.211773
0.21401
0.21753
0.222381
0.228427
0.235421
0.243085
0.251172
0.259482
0.267867
0.276215
0.284445
0.292497
0.300329
0.307908
0.315216
0.322238
0.328968
0.335403
0.341546
0.347402
0.352977
0.358282
0.363326
0.368124
0.372689
0.377038
0.381186
0.385151
0.388948
0.392591
0.396096
0.399473
0.402735
0.40589
0.408947
0.411915
0.414801
0.417612
0.420356
0.423042
0.425676
0.428267
0.43082
0.433343
0.435841
0.438318
0.440779
0.443228
0.445665
0.448093
0.450512
0.452922
0.45532
0.457705
0.460074
0.462423
0.464749
0.467049
0.469317
0.471552
0.473751
0.475909
0.478027
0.480103
0.482136
0.484127
0.486078
0.48799
0.489865
0.491705
0.493514
0.495293
0.497044
0.498769
0.500469
0.502146
0.503802
0.505436
0.507052
0.50865
0.510232
0.511801
0.513356
0.5149
0.516434
0.517959
0.519474
0.520982
0.522481
0.523973
0.525457
0.526932
0.528402
0.529866
0.531326
0.532781
0.534234
0.535684
0.537135
0.538589
0.540049
0.541518
0.543004
0.544512
0.546052
0.547637
0.549284
0.551016
0.552865
0.55488
0.55713
0.559722
0.562819
0.566677
0.571709
0.578676
0.589139
0.60343
0.609031
0.612344
0.614792
0.617
0.619323
0.622044
0.625423
0.629752
0.641916
0.681956
0.760651
0.797885
0.799943
0.79997
0.797918
0.797035
0.795805
0.793304
0.791555
0.719097
0.706158
0.652567
0.628852
0.610414
0.604341
0.597902
0.591473
0.585546
0.580459
0.576603
0.575227
0.220279
0.222832
0.226614
0.231556
0.237487
0.244194
0.251463
0.259106
0.266967
0.274922
0.282872
0.290742
0.298473
0.306019
0.313346
0.320431
0.327255
0.33381
0.340088
0.346088
0.351812
0.357263
0.362449
0.367378
0.372061
0.376512
0.380745
0.384778
0.388629
0.392313
0.395848
0.399248
0.402525
0.40569
0.40875
0.411714
0.414587
0.417377
0.420093
0.422741
0.42533
0.42787
0.430368
0.432831
0.435268
0.437685
0.440086
0.442478
0.444864
0.447246
0.449627
0.452007
0.454384
0.456758
0.459125
0.461481
0.463822
0.466144
0.468443
0.470713
0.47295
0.475151
0.477312
0.47943
0.481503
0.483532
0.485516
0.487457
0.489356
0.491217
0.493043
0.494837
0.4966
0.498336
0.500046
0.501731
0.503392
0.505032
0.506651
0.508251
0.509834
0.511402
0.512957
0.5145
0.516034
0.517559
0.519078
0.52059
0.522097
0.523598
0.525094
0.526586
0.52807
0.529552
0.531032
0.532511
0.53399
0.53547
0.536953
0.538442
0.53994
0.541451
0.54298
0.544536
0.546126
0.547764
0.549465
0.551252
0.553157
0.555225
0.557522
0.560145
0.563243
0.567041
0.57189
0.578388
0.587759
0.602975
0.625083
0.628703
0.631215
0.632791
0.633879
0.634702
0.635622
0.636707
0.638146
0.653456
0.713535
0.782162
0.799038
0.799973
0.799999
0.799964
0.799931
0.799875
0.799787
0.799752
0.794153
0.792441
0.772555
0.634144
0.610745
0.60513
0.599177
0.59301
0.587063
0.581755
0.577576
0.575862
0.229773
0.23241
0.236189
0.240998
0.246671
0.253028
0.259896
0.267121
0.274573
0.282142
0.289737
0.297284
0.304726
0.312014
0.319113
0.325995
0.33264
0.339034
0.345168
0.351037
0.356639
0.361975
0.367049
0.371866
0.376436
0.380769
0.384881
0.38879
0.392515
0.396076
0.399491
0.402777
0.405945
0.409004
0.411961
0.414821
0.41759
0.420273
0.422879
0.425416
0.427893
0.430322
0.43271
0.435068
0.437403
0.439723
0.442034
0.444343
0.446654
0.448972
0.451297
0.45363
0.455971
0.458317
0.460664
0.463007
0.465342
0.467663
0.469963
0.472238
0.474482
0.476689
0.478856
0.480977
0.483052
0.485077
0.487053
0.488983
0.490868
0.492713
0.494521
0.496297
0.498042
0.499761
0.501453
0.503121
0.504764
0.506386
0.507986
0.509567
0.511132
0.512682
0.51422
0.515748
0.517268
0.518783
0.520293
0.5218
0.523304
0.524807
0.526307
0.527805
0.529299
0.530793
0.532289
0.533788
0.535292
0.536802
0.53832
0.53985
0.541396
0.542963
0.544558
0.54619
0.54787
0.549615
0.551444
0.553389
0.555489
0.557806
0.560427
0.563478
0.567149
0.571719
0.577622
0.585607
0.597324
0.616864
0.642091
0.669357
0.69016
0.721596
0.763425
0.786794
0.776665
0.749213
0.684726
0.692633
0.761041
0.798154
0.799934
0.799998
0.8
0.799999
0.799998
0.799997
0.799994
0.799994
0.799831
0.799762
0.798271
0.616129
0.610617
0.605536
0.599701
0.593892
0.588077
0.582714
0.578366
0.576441
0.239498
0.2421
0.245758
0.250356
0.255742
0.261762
0.268269
0.275132
0.282233
0.289472
0.296763
0.304035
0.311227
0.318293
0.325193
0.331899
0.338388
0.344643
0.350654
0.356411
0.361909
0.367147
0.372122
0.376838
0.3813
0.385517
0.389504
0.39328
0.396868
0.400292
0.403575
0.406735
0.409784
0.41273
0.415576
0.418324
0.420976
0.423539
0.426019
0.428427
0.430774
0.433071
0.435329
0.437561
0.439775
0.441979
0.444182
0.446392
0.448613
0.450852
0.453111
0.45539
0.457689
0.460003
0.462329
0.46466
0.46699
0.469312
0.471619
0.473904
0.47616
0.47838
0.480558
0.482688
0.484774
0.486809
0.488785
0.490702
0.492572
0.494397
0.496184
0.497938
0.499662
0.501359
0.503031
0.504677
0.506299
0.507898
0.509475
0.511032
0.512573
0.514099
0.515614
0.517122
0.518624
0.520124
0.521623
0.523122
0.524622
0.526124
0.527628
0.529133
0.53064
0.532147
0.533659
0.53518
0.536709
0.538251
0.539807
0.541381
0.542979
0.544607
0.546272
0.547987
0.549766
0.551628
0.553601
0.555723
0.558047
0.560649
0.563638
0.567168
0.57146
0.576836
0.583793
0.593222
0.607252
0.630995
0.655206
0.707924
0.777389
0.799456
0.799995
0.799952
0.798015
0.796725
0.798009
0.787665
0.796984
0.799842
0.799995
0.8
0.8
0.8
0.8
0.8
0.8
0.8
0.799997
0.799996
0.768689
0.615545
0.610613
0.60584
0.600168
0.594462
0.588782
0.583437
0.579018
0.576978
0.249024
0.251544
0.255054
0.25944
0.264568
0.270303
0.276515
0.283085
0.289905
0.296879
0.303926
0.310973
0.317963
0.324846
0.331584
0.338147
0.34451
0.350656
0.356572
0.362245
0.367667
0.372832
0.377734
0.38237
0.38674
0.390849
0.39471
0.398344
0.401779
0.405049
0.408182
0.411202
0.414122
0.416945
0.419672
0.422298
0.424824
0.427251
0.429587
0.431843
0.434034
0.436175
0.438279
0.440359
0.442426
0.44449
0.446562
0.448649
0.450761
0.452905
0.455083
0.457297
0.459545
0.461823
0.464126
0.466445
0.468773
0.471101
0.473421
0.475723
0.477999
0.480241
0.482439
0.484608
0.486725
0.488779
0.490763
0.492675
0.494522
0.496321
0.49808
0.499806
0.501504
0.503176
0.504824
0.506446
0.508044
0.509616
0.511165
0.512693
0.514203
0.515698
0.517183
0.518663
0.52014
0.521619
0.523101
0.524589
0.526082
0.527581
0.529086
0.530597
0.532115
0.533634
0.535163
0.536706
0.538263
0.539838
0.541434
0.543055
0.544709
0.546402
0.548145
0.549952
0.551841
0.553838
0.555976
0.558303
0.560885
0.563812
0.567211
0.571254
0.576186
0.582355
0.590312
0.601119
0.617551
0.645832
0.665034
0.74979
0.799267
0.799994
0.8
0.8
0.799982
0.799947
0.799943
0.79955
0.799865
0.799994
0.8
0.8
0.8
0.8
0.8
0.8
0.8
0.8
0.8
0.798546
0.69009
0.615656
0.610766
0.606098
0.600582
0.59495
0.589306
0.584007
0.579573
0.577484
0.258132
0.260565
0.263941
0.268154
0.273082
0.278603
0.284597
0.290953
0.297568
0.304349
0.311215
0.318097
0.324935
0.331682
0.3383
0.344758
0.351034
0.357108
0.362967
0.368595
0.373983
0.379118
0.383988
0.388582
0.392893
0.396915
0.400657
0.40414
0.407401
0.410488
0.413444
0.416301
0.419075
0.421766
0.424367
0.426866
0.429253
0.431526
0.433694
0.43577
0.437772
0.439722
0.441637
0.443532
0.445419
0.447311
0.449219
0.451154
0.453129
0.455153
0.457231
0.459365
0.461553
0.46379
0.466067
0.468375
0.470704
0.473044
0.475383
0.477713
0.480021
0.482296
0.48456
0.486781
0.488942
0.491029
0.493029
0.494936
0.496756
0.49852
0.500242
0.501934
0.503601
0.505245
0.506866
0.508463
0.510033
0.511576
0.513092
0.514584
0.516055
0.51751
0.518956
0.520398
0.521841
0.523292
0.524752
0.526222
0.527704
0.529198
0.530702
0.532218
0.533744
0.535278
0.536823
0.538387
0.539972
0.541582
0.543221
0.544895
0.546611
0.54838
0.550213
0.552129
0.55415
0.556307
0.558641
0.561209
0.564085
0.567372
0.571206
0.57577
0.581317
0.588213
0.597059
0.609151
0.628188
0.66237
0.674212
0.780314
0.799508
0.799992
0.8
0.8
0.8
0.799999
0.799999
0.79999
0.799997
0.8
0.8
0.8
0.8
0.8
0.8
0.8
0.8
0.799999
0.799905
0.79081
0.666798
0.615842
0.610947
0.606315
0.600908
0.595368
0.589782
0.584495
0.580065
0.57797
0.266719
0.269079
0.272356
0.276452
0.281252
0.28664
0.292504
0.298733
0.305226
0.31189
0.318646
0.325423
0.332165
0.338827
0.345371
0.351772
0.358006
0.364057
0.36991
0.375551
0.380966
0.386138
0.391047
0.395672
0.400088
0.404188
0.407836
0.411154
0.414193
0.417031
0.419743
0.422383
0.424973
0.427511
0.429974
0.432332
0.43456
0.43665
0.438608
0.440451
0.442207
0.443906
0.445575
0.44723
0.448886
0.450553
0.452247
0.453983
0.455777
0.457644
0.459593
0.461625
0.463737
0.465922
0.46817
0.470467
0.472801
0.475159
0.477529
0.479898
0.482254
0.484606
0.486951
0.48926
0.491509
0.493673
0.495719
0.49763
0.499412
0.501127
0.502798
0.504442
0.506068
0.507678
0.509269
0.510836
0.512374
0.51388
0.515354
0.516799
0.518217
0.519617
0.521006
0.522395
0.52379
0.5252
0.526626
0.528072
0.529537
0.53102
0.53252
0.534037
0.535571
0.537122
0.538683
0.540269
0.541886
0.543535
0.545225
0.54696
0.548752
0.550612
0.552556
0.554605
0.556787
0.559138
0.561704
0.564548
0.567749
0.571415
0.575682
0.580734
0.586824
0.594324
0.603889
0.617066
0.638595
0.678312
0.738907
0.793115
0.799879
0.799998
0.8
0.8
0.8
0.8
0.8
0.8
0.8
0.8
0.8
0.8
0.8
0.8
0.8
0.8
0.8
0.799997
0.79982
0.790364
0.648123
0.615874
0.61105
0.60647
0.60117
0.59572
0.590203
0.584956
0.580544
0.578451
0.274741
0.277053
0.280278
0.284321
0.289072
0.294419
0.300247
0.306444
0.312905
0.319535
0.326254
0.332993
0.3397
0.346331
0.352855
0.359251
0.3655
0.37159
0.377508
0.383244
0.388781
0.394101
0.399337
0.404706
0.409965
0.414899
0.419163
0.422206
0.424802
0.427097
0.42927
0.431432
0.433635
0.435872
0.43809
0.440212
0.442171
0.44394
0.445522
0.446944
0.448253
0.449508
0.450751
0.452006
0.453283
0.454592
0.455949
0.457373
0.45889
0.46052
0.462276
0.464158
0.466162
0.468276
0.470482
0.472764
0.475105
0.477489
0.4799
0.482326
0.484751
0.487222
0.4897
0.492167
0.494598
0.496943
0.499125
0.501073
0.5028
0.504437
0.506025
0.507594
0.509161
0.510727
0.512281
0.513812
0.515309
0.516767
0.518184
0.51956
0.520901
0.522215
0.523515
0.524817
0.526135
0.527477
0.52885
0.530255
0.531691
0.533154
0.534643
0.536156
0.537692
0.539254
0.540829
0.542437
0.544087
0.545784
0.547535
0.549349
0.551238
0.553215
0.5553
0.557517
0.559898
0.562479
0.565311
0.568455
0.57199
0.576021
0.580679
0.586143
0.592658
0.600604
0.610689
0.624727
0.648428
0.690729
0.766963
0.796383
0.799936
0.799999
0.8
0.8
0.8
0.8
0.8
0.8
0.8
0.8
0.8
0.8
0.8
0.8
0.8
0.8
0.8
0.799996
0.799838
0.794607
0.621766
0.615506
0.61103
0.606573
0.601398
0.596041
0.590595
0.585399
0.58102
0.578934
0.282184
0.284476
0.2877
0.291763
0.296556
0.301963
0.307862
0.314133
0.320662
0.327348
0.33411
0.340881
0.347614
0.354274
0.360839
0.367292
0.373627
0.379839
0.385924
0.391877
0.397691
0.403648
0.410135
0.416935
0.424107
0.431177
0.437618
0.440879
0.442696
0.443872
0.444912
0.446086
0.447536
0.449263
0.451144
0.45297
0.454545
0.455789
0.456699
0.457318
0.457744
0.458118
0.458532
0.459025
0.459599
0.460251
0.460995
0.461858
0.46288
0.464095
0.465519
0.46715
0.468973
0.470965
0.473101
0.475353
0.477696
0.480109
0.482573
0.485075
0.487624
0.49026
0.49296
0.495722
0.498529
0.50131
0.503874
0.505944
0.507582
0.509069
0.510499
0.51193
0.513394
0.514892
0.5164
0.517885
0.519329
0.520718
0.522049
0.523319
0.524533
0.5257
0.526843
0.527992
0.529169
0.530392
0.531669
0.533
0.53438
0.535803
0.537265
0.538762
0.540293
0.541859
0.543462
0.545089
0.546775
0.548526
0.550351
0.55226
0.554266
0.556388
0.558645
0.561064
0.563676
0.566516
0.569629
0.57307
0.576913
0.581253
0.586216
0.591972
0.598766
0.606986
0.617406
0.632133
0.657818
0.700221
0.783655
0.799206
0.799985
0.8
0.8
0.8
0.8
0.8
0.8
0.8
0.8
0.8
0.8
0.8
0.8
0.8
0.8
0.8
0.8
0.799991
0.799557
0.783573
0.620997
0.615387
0.611087
0.606708
0.601636
0.596362
0.590985
0.585839
0.581497
0.579418
0.28906
0.291372
0.294654
0.298809
0.303721
0.309265
0.315409
0.321886
0.328597
0.335437
0.342326
0.349201
0.356027
0.36278
0.369451
0.37604
0.382553
0.389002
0.395402
0.401768
0.408321
0.41609
0.424953
0.434915
0.446207
0.456911
0.468028
0.471825
0.472357
0.471166
0.469882
0.469107
0.469211
0.470264
0.472196
0.475168
0.47639
0.476883
0.47663
0.47569
0.474269
0.472789
0.471512
0.470503
0.469722
0.469119
0.468684
0.468462
0.46853
0.468952
0.469753
0.470919
0.472413
0.474187
0.476189
0.478373
0.480701
0.483141
0.485669
0.488271
0.491008
0.493884
0.496931
0.500192
0.503708
0.507431
0.51094
0.513235
0.514713
0.515885
0.516989
0.518148
0.51943
0.520839
0.522312
0.523765
0.525154
0.526461
0.527676
0.52879
0.5298
0.530715
0.531573
0.532436
0.533353
0.534356
0.535457
0.536653
0.537933
0.539282
0.54069
0.54215
0.543657
0.545214
0.546824
0.548471
0.550186
0.551994
0.553904
0.555925
0.558073
0.560365
0.562823
0.56547
0.568333
0.571439
0.57482
0.578518
0.582596
0.587141
0.592278
0.598178
0.605093
0.613428
0.624042
0.639405
0.667204
0.707195
0.791914
0.799905
0.799999
0.8
0.8
0.8
0.8
0.8
0.8
0.8
0.8
0.8
0.8
0.8
0.8
0.8
0.8
0.8
0.8
0.799985
0.798573
0.725116
0.62109
0.615523
0.611264
0.606915
0.601919
0.596712
0.591391
0.58629
0.581978
0.579906
0.295399
0.297792
0.301219
0.305579
0.31074
0.316558
0.322948
0.329668
0.336573
0.343861
0.351067
0.358125
0.36511
0.372025
0.378882
0.385704
0.392523
0.399379
0.406327
0.413435
0.422392
0.433537
0.447254
0.46155
0.477839
0.489501
0.503436
0.506001
0.505696
0.501521
0.49765
0.494805
0.49368
0.494648
0.499306
0.506095
0.508916
0.509088
0.507728
0.504736
0.500284
0.495685
0.491696
0.488395
0.485568
0.483004
0.480624
0.478506
0.476853
0.475834
0.475511
0.475853
0.476772
0.478165
0.479934
0.481993
0.484276
0.486734
0.489336
0.492065
0.495018
0.49822
0.501752
0.505745
0.510388
0.515749
0.521045
0.52337
0.524552
0.525076
0.525586
0.526274
0.527292
0.528659
0.530503
0.532181
0.533559
0.534802
0.5359
0.536827
0.537554
0.538068
0.538419
0.538772
0.539224
0.539841
0.540643
0.541617
0.542733
0.543962
0.545279
0.546667
0.548122
0.549644
0.551242
0.552925
0.554657
0.556516
0.55851
0.560647
0.562942
0.565411
0.568076
0.570954
0.574064
0.577413
0.581009
0.584876
0.589066
0.593668
0.598818
0.604705
0.611589
0.619908
0.630642
0.646765
0.677477
0.71203
0.794137
0.799919
0.799999
0.8
0.8
0.8
0.8
0.8
0.8
0.8
0.8
0.8
0.8
0.8
0.8
0.8
0.8
0.8
0.799995
0.799561
0.783814
0.679113
0.621306
0.615765
0.611528
0.607202
0.602265
0.59711
0.591833
0.586761
0.582467
0.580397
0.301218
0.303761
0.307436
0.312136
0.317709
0.323975
0.330778
0.337878
0.34511
0.352575
0.359975
0.367834
0.375103
0.382266
0.38941
0.3966
0.403913
0.411446
0.41933
0.428838
0.441729
0.459439
0.479705
0.494981
0.512463
0.518045
0.52268
0.54428
0.54991
0.513577
0.511287
0.509341
0.50885
0.510993
0.519355
0.530696
0.534042
0.536145
0.535726
0.532981
0.526692
0.51971
0.513922
0.509279
0.505153
0.501021
0.49665
0.492165
0.488089
0.484939
0.482938
0.482056
0.482134
0.482981
0.484419
0.486303
0.488522
0.490998
0.493686
0.496573
0.499772
0.503336
0.507409
0.512239
0.518271
0.525609
0.532613
0.53434
0.535162
0.534684
0.534495
0.534646
0.535449
0.537044
0.54066
0.542962
0.544587
0.545856
0.546929
0.547753
0.548233
0.548247
0.54778
0.547322
0.547038
0.547065
0.547439
0.548116
0.549025
0.550103
0.551301
0.55259
0.553957
0.555408
0.556961
0.558635
0.560414
0.562308
0.564377
0.566625
0.56906
0.571697
0.574552
0.577638
0.580962
0.584507
0.588233
0.592143
0.596287
0.600766
0.605761
0.61149
0.618224
0.62643
0.637263
0.654462
0.690269
0.716209
0.794671
0.799921
0.799999
0.8
0.8
0.8
0.8
0.8
0.8
0.8
0.8
0.8
0.8
0.8
0.8
0.8
0.799996
0.799949
0.798977
0.788485
0.743752
0.652083
0.621391
0.616012
0.611849
0.60757
0.60269
0.597577
0.592324
0.587261
0.582965
0.580889
0.306543
0.309313
0.313362
0.31858
0.324785
0.331729
0.339155
0.346794
0.354476
0.362235
0.36994
0.377873
0.385941
0.393843
0.401443
0.409212
0.417323
0.425979
0.435467
0.450288
0.469769
0.49562
0.518289
0.526815
0.533669
0.646746
0.779151
0.792778
0.778577
0.757177
0.56684
0.521294
0.520333
0.523905
0.538337
0.545642
0.585208
0.694106
0.704048
0.587242
0.536813
0.53166
0.527875
0.525
0.522132
0.518523
0.51365
0.507444
0.500862
0.495278
0.491326
0.489034
0.488162
0.488411
0.489507
0.491229
0.493412
0.495937
0.498739
0.501808
0.505231
0.509093
0.513594
0.519114
0.52645
0.535024
0.540384
0.553105
0.561709
0.542091
0.541633
0.541411
0.5422
0.545119
0.552794
0.556951
0.558723
0.560116
0.562107
0.563036
0.563468
0.562947
0.560848
0.558908
0.557335
0.556402
0.556165
0.556472
0.557152
0.558071
0.559141
0.560304
0.561536
0.562853
0.56431
0.565941
0.56776
0.569679
0.571793
0.574096
0.576594
0.579301
0.582241
0.585439
0.588909
0.592621
0.596395
0.600224
0.604161
0.608323
0.613018
0.618503
0.625029
0.633052
0.643947
0.662433
0.704933
0.787184
0.799645
0.799995
0.8
0.8
0.8
0.8
0.8
0.8
0.8
0.8
0.8
0.8
0.8
0.8
0.8
0.8
0.799996
0.799894
0.797472
0.779111
0.71981
0.6268
0.621105
0.616234
0.612238
0.608039
0.60322
0.598136
0.592862
0.587799
0.583487
0.581389
0.311404
0.314492
0.319075
0.325061
0.332218
0.340171
0.348492
0.35686
0.365122
0.373295
0.381364
0.389494
0.397751
0.406656
0.415574
0.424302
0.433731
0.444334
0.459659
0.485055
0.508977
0.535904
0.544322
0.62415
0.77434
0.796647
0.799697
0.799915
0.799768
0.799477
0.790989
0.58895
0.536297
0.541135
0.559212
0.717436
0.798204
0.799161
0.798766
0.788839
0.575318
0.539079
0.537523
0.536968
0.536171
0.534277
0.530283
0.523051
0.513493
0.505271
0.499442
0.495892
0.494222
0.494009
0.494891
0.496572
0.498826
0.501485
0.504445
0.507698
0.51126
0.515234
0.519853
0.525679
0.534042
0.542978
0.608207
0.790516
0.794399
0.776655
0.596261
0.54974
0.549695
0.553473
0.56204
0.624797
0.779585
0.760925
0.795609
0.799254
0.781087
0.614795
0.56768
0.566289
0.564842
0.563906
0.563804
0.564288
0.565125
0.566162
0.567298
0.568463
0.569618
0.570792
0.572143
0.573731
0.575556
0.577581
0.579729
0.582053
0.584564
0.58729
0.590277
0.593594
0.597324
0.601477
0.605345
0.609042
0.612644
0.616274
0.620613
0.625901
0.632248
0.640044
0.651009
0.67098
0.718564
0.793909
0.799877
0.799998
0.8
0.8
0.8
0.8
0.8
0.8
0.8
0.8
0.8
0.8
0.8
0.8
0.8
0.8
0.799998
0.799942
0.797321
0.782612
0.726426
0.626461
0.621226
0.616651
0.612783
0.608667
0.603822
0.598775
0.59351
0.588421
0.584057
0.5819
0.315837
0.31934
0.324669
0.331799
0.340429
0.349914
0.359505
0.368831
0.377804
0.386488
0.394974
0.403432
0.412063
0.421277
0.431944
0.443024
0.454871
0.469375
0.502764
0.540033
0.557223
0.566901
0.75542
0.794396
0.799467
0.799955
0.799997
0.799999
0.799998
0.799996
0.799874
0.765593
0.648191
0.566029
0.609296
0.775314
0.799611
0.799994
0.799993
0.799892
0.783755
0.566163
0.629186
0.674678
0.657517
0.595304
0.558176
0.526742
0.518261
0.510938
0.505214
0.50145
0.499572
0.499286
0.50025
0.502145
0.504689
0.507645
0.510823
0.514225
0.517796
0.521605
0.525855
0.531342
0.539723
0.669799
0.794444
0.799876
0.799957
0.799641
0.79032
0.582546
0.555152
0.563139
0.572384
0.64736
0.794562
0.799457
0.799952
0.799988
0.799861
0.797607
0.794157
0.624499
0.569996
0.569357
0.569951
0.570997
0.572254
0.573601
0.574958
0.576245
0.577375
0.578339
0.57959
0.581183
0.583057
0.585155
0.587382
0.589793
0.592395
0.595239
0.598401
0.602033
0.606429
0.611938
0.615781
0.619239
0.622332
0.625675
0.629808
0.634852
0.640936
0.648548
0.660274
0.684416
0.740676
0.79755
0.799961
0.8
0.8
0.8
0.8
0.8
0.8
0.8
0.8
0.8
0.8
0.8
0.8
0.8
0.8
0.8
0.799997
0.799949
0.799416
0.79703
0.788968
0.62693
0.621746
0.617317
0.613489
0.609383
0.604615
0.599591
0.594306
0.589149
0.584686
0.582422
0.319876
0.323882
0.330231
0.339111
0.350147
0.362128
0.373556
0.38413
0.393929
0.403171
0.412113
0.42103
0.430236
0.440158
0.45149
0.466505
0.48439
0.50933
0.570314
0.587284
0.70812
0.783349
0.798617
0.799902
0.799993
0.799999
0.8
0.8
0.8
0.8
0.799997
0.79933
0.741386
0.582412
0.663101
0.788812
0.799822
0.799998
0.8
0.799999
0.657168
0.595273
0.730334
0.794729
0.789934
0.644246
0.581981
0.529662
0.521185
0.514503
0.509219
0.505717
0.504072
0.50411
0.505546
0.508049
0.511268
0.51506
0.518544
0.522069
0.525522
0.528951
0.532562
0.537097
0.544355
0.716204
0.796937
0.799951
0.799999
0.799995
0.799769
0.601626
0.578488