/*--------------------------------*- C++ -*----------------------------------*\
| =========                 |                                                 |
| \\      /  F ield         | OpenFOAM: The Open Source CFD Toolbox           |
|  \\    /   O peration     | Version:  2.1.0                                 |
|   \\  /    A nd           | Web:      www.OpenFOAM.org                      |
|    \\/     M anipulation  |                                                 |
\*---------------------------------------------------------------------------*/
FoamFile
{
    version     2.0;
    format      ascii;
    class       volScalarField;
    location    "52195";
    object      sw;
}
// * * * * * * * * * * * * * * * * * * * * * * * * * * * * * * * * * * * * * //

dimensions      [0 0 0 0 0 0 0];

internalField   nonuniform List<scalar> 
15000
(
0.8
0.799999
0.799999
0.799984
0.799729
0.798256
0.794166
0.787075
0.777825
0.767515
0.75692
0.746468
0.736366
0.726705
0.717517
0.708803
0.70055
0.692741
0.685351
0.678359
0.671738
0.665466
0.659518
0.653872
0.648506
0.643398
0.638529
0.633879
0.629432
0.625171
0.62108
0.617145
0.613352
0.609691
0.606148
0.602714
0.599379
0.596132
0.592964
0.589869
0.58684
0.583869
0.580953
0.578087
0.575266
0.572487
0.569747
0.567043
0.564375
0.56174
0.559138
0.556568
0.55403
0.551526
0.549054
0.546617
0.544215
0.541848
0.539518
0.537226
0.534972
0.532757
0.53058
0.528442
0.526342
0.52428
0.522255
0.520265
0.518309
0.516386
0.514495
0.512635
0.510803
0.508998
0.50722
0.505467
0.503738
0.502031
0.500346
0.498682
0.497037
0.495412
0.493806
0.492217
0.490646
0.489093
0.487557
0.486039
0.484539
0.483057
0.481593
0.480148
0.478722
0.477315
0.47593
0.474566
0.473225
0.471907
0.470614
0.469347
0.468106
0.466894
0.46571
0.464558
0.463436
0.462347
0.461292
0.460271
0.459284
0.458332
0.457416
0.456533
0.455684
0.454868
0.454083
0.453328
0.452601
0.451902
0.451227
0.450575
0.44994
0.449313
0.448682
0.448032
0.447344
0.446599
0.445788
0.444933
0.444114
0.443438
0.442925
0.442554
0.44229
0.442025
0.441758
0.441484
0.441201
0.440908
0.440601
0.440278
0.439933
0.439558
0.439142
0.438667
0.438112
0.437438
0.436585
0.435433
0.433682
0.43012
0.799999
0.799999
0.799997
0.799953
0.799478
0.797395
0.792501
0.784813
0.775299
0.764963
0.754463
0.744151
0.734199
0.724682
0.715623
0.707024
0.698873
0.691152
0.68384
0.676916
0.670355
0.664137
0.658237
0.652634
0.647307
0.642235
0.6374
0.632782
0.628365
0.624131
0.620067
0.616157
0.612388
0.608749
0.605229
0.601816
0.5985
0.595272
0.592124
0.589047
0.586035
0.583082
0.580183
0.577333
0.574528
0.571764
0.569038
0.566348
0.563692
0.561069
0.558477
0.555917
0.553389
0.550892
0.548428
0.545996
0.543599
0.541236
0.53891
0.536621
0.53437
0.532157
0.529983
0.527847
0.52575
0.523689
0.521666
0.519678
0.517725
0.515804
0.513915
0.512057
0.510227
0.508425
0.506649
0.504898
0.503171
0.501466
0.499783
0.498121
0.496478
0.494854
0.493249
0.491661
0.490091
0.488538
0.487002
0.485483
0.483982
0.482498
0.481031
0.479583
0.478152
0.476741
0.475349
0.473977
0.472626
0.471297
0.469991
0.468708
0.46745
0.466217
0.465011
0.46383
0.462678
0.461552
0.460454
0.459384
0.45834
0.457321
0.456327
0.455354
0.4544
0.453463
0.452538
0.451625
0.450722
0.449827
0.448942
0.448062
0.447179
0.44627
0.445303
0.444225
0.442969
0.441459
0.439634
0.437538
0.435488
0.433999
0.433038
0.432486
0.432229
0.432079
0.432031
0.432063
0.432131
0.432217
0.432334
0.432503
0.432735
0.433015
0.433313
0.433587
0.43379
0.433869
0.433753
0.433319
0.43227
0.429396
0.799999
0.799997
0.799983
0.799805
0.798769
0.795611
0.789632
0.781302
0.771598
0.761342
0.751039
0.740959
0.731234
0.721924
0.71305
0.704611
0.6966
0.689001
0.681797
0.674966
0.668489
0.662345
0.656513
0.650972
0.645701
0.640683
0.635897
0.631326
0.626953
0.622761
0.618736
0.614865
0.611133
0.607529
0.604043
0.600663
0.597379
0.594181
0.591062
0.588014
0.58503
0.582104
0.579231
0.576407
0.573625
0.570884
0.56818
0.56551
0.562873
0.560266
0.55769
0.555144
0.552627
0.550141
0.547686
0.545262
0.542871
0.540514
0.538193
0.535908
0.53366
0.53145
0.529279
0.527146
0.525051
0.522994
0.520974
0.518989
0.517039
0.515122
0.513237
0.511383
0.509557
0.507759
0.505987
0.50424
0.502517
0.500816
0.499136
0.497477
0.495838
0.494217
0.492614
0.491028
0.489459
0.487907
0.486372
0.484852
0.483349
0.481863
0.480394
0.478941
0.477505
0.476086
0.474685
0.473303
0.471941
0.470597
0.469274
0.467972
0.466691
0.465432
0.464195
0.46298
0.461787
0.460614
0.459461
0.458327
0.457209
0.456103
0.455006
0.453912
0.452816
0.45171
0.450587
0.44944
0.448264
0.447055
0.445817
0.444557
0.443266
0.441906
0.440407
0.438657
0.436506
0.433762
0.430244
0.425937
0.421709
0.419311
0.417979
0.417307
0.417073
0.417153
0.417553
0.418229
0.418986
0.419764
0.420617
0.42163
0.422844
0.424218
0.425675
0.42712
0.428459
0.429608
0.430481
0.430956
0.430738
0.428626
0.799985
0.799955
0.799811
0.799132
0.796964
0.792377
0.785328
0.776531
0.766811
0.756768
0.746763
0.736992
0.727556
0.718504
0.709856
0.701615
0.693775
0.686325
0.679251
0.672535
0.666161
0.66011
0.654362
0.648899
0.643701
0.638751
0.634029
0.629519
0.625204
0.621067
0.617096
0.613275
0.609592
0.606036
0.602594
0.599258
0.596017
0.592861
0.589782
0.586773
0.583827
0.580939
0.578101
0.575311
0.572562
0.569852
0.567176
0.564533
0.56192
0.559336
0.556779
0.554251
0.551749
0.549276
0.546832
0.544417
0.542034
0.539683
0.537366
0.535085
0.532841
0.530635
0.528467
0.526337
0.524246
0.522193
0.520177
0.518197
0.516251
0.51434
0.512461
0.510612
0.508792
0.506999
0.505233
0.503491
0.501774
0.500078
0.498404
0.49675
0.495115
0.493498
0.491899
0.490316
0.48875
0.4872
0.485665
0.484145
0.482641
0.481152
0.479678
0.47822
0.476778
0.475351
0.47394
0.472546
0.471168
0.469808
0.468465
0.467139
0.465832
0.464541
0.463268
0.46201
0.460768
0.459538
0.458319
0.457107
0.455898
0.454684
0.453459
0.452213
0.450932
0.449602
0.448203
0.446712
0.44511
0.443379
0.441535
0.439641
0.437721
0.435721
0.433517
0.430921
0.427666
0.423409
0.417769
0.410399
0.403331
0.401061
0.399913
0.399341
0.399142
0.399454
0.400385
0.401989
0.40362
0.405138
0.406733
0.408648
0.411015
0.413731
0.416647
0.419581
0.422355
0.424831
0.426897
0.428426
0.429133
0.427826
0.799754
0.799517
0.798832
0.797034
0.793328
0.787395
0.779612
0.770652
0.761113
0.751402
0.741772
0.732364
0.723259
0.714499
0.706106
0.698087
0.69044
0.683159
0.676233
0.669649
0.663394
0.65745
0.6518
0.646429
0.641317
0.636447
0.631803
0.627367
0.623122
0.619054
0.615147
0.611389
0.607766
0.604268
0.600884
0.597603
0.594414
0.59131
0.588282
0.585323
0.582425
0.579584
0.576792
0.574045
0.571337
0.568666
0.566027
0.563417
0.560835
0.558278
0.555746
0.553239
0.550756
0.548298
0.545866
0.543461
0.541086
0.538742
0.53643
0.534154
0.531913
0.52971
0.527545
0.525419
0.523332
0.521283
0.519272
0.517298
0.515359
0.513455
0.511582
0.509741
0.507928
0.506143
0.504385
0.50265
0.50094
0.499252
0.497584
0.495937
0.494308
0.492697
0.491103
0.489525
0.487962
0.486414
0.48488
0.48336
0.481855
0.480363
0.478885
0.477422
0.475972
0.474535
0.473113
0.471704
0.47031
0.46893
0.467564
0.466211
0.464872
0.463546
0.46223
0.460924
0.459625
0.45833
0.457034
0.455731
0.454414
0.453073
0.451695
0.450261
0.448747
0.447122
0.44534
0.443344
0.441067
0.438445
0.435521
0.432623
0.429859
0.427129
0.424224
0.420857
0.416654
0.411129
0.403705
0.393238
0.384684
0.384387
0.383605
0.383248
0.383038
0.383304
0.384376
0.386964
0.3893
0.391095
0.392899
0.395261
0.398547
0.402517
0.406913
0.411473
0.415859
0.419819
0.423195
0.425852
0.427518
0.427017
0.798424
0.797605
0.795871
0.792649
0.787589
0.780802
0.772741
0.763908
0.754706
0.745411
0.7362
0.727185
0.718432
0.709982
0.70186
0.694077
0.686636
0.679536
0.67277
0.66633
0.660203
0.654377
0.648837
0.643567
0.638552
0.633775
0.62922
0.624869
0.620707
0.616718
0.612888
0.609204
0.605654
0.602225
0.598907
0.595691
0.592566
0.589524
0.586557
0.583658
0.58082
0.578035
0.575299
0.572605
0.569949
0.567325
0.564731
0.562162
0.559617
0.557093
0.55459
0.552108
0.549646
0.547206
0.544788
0.542395
0.540028
0.537691
0.535384
0.533111
0.530874
0.528674
0.526512
0.524389
0.522306
0.520263
0.518258
0.51629
0.514359
0.512463
0.510599
0.508767
0.506963
0.505188
0.503438
0.501714
0.500012
0.498333
0.496674
0.495035
0.493415
0.491811
0.490224
0.488651
0.487093
0.485548
0.484016
0.482497
0.480991
0.479496
0.478014
0.476544
0.475086
0.473639
0.472204
0.470779
0.469366
0.467964
0.466572
0.465189
0.463815
0.462448
0.461086
0.459725
0.458363
0.456993
0.45561
0.454205
0.452765
0.451277
0.449717
0.448057
0.446253
0.444244
0.441939
0.43921
0.435879
0.43173
0.426859
0.422579
0.418965
0.415703
0.412421
0.408731
0.404195
0.39829
0.390412
0.378251
0.37397
0.365571
0.3578
0.348542
0.342072
0.345522
0.357625
0.381225
0.382766
0.383418
0.384142
0.385574
0.388616
0.392878
0.397965
0.403807
0.409672
0.415045
0.419671
0.423402
0.425974
0.426223
0.794712
0.7931
0.790273
0.78595
0.780122
0.773037
0.765066
0.756558
0.747786
0.738945
0.73017
0.721553
0.713156
0.705021
0.697173
0.68963
0.6824
0.675486
0.668886
0.662594
0.656602
0.650901
0.645477
0.640317
0.635408
0.630733
0.626277
0.622022
0.617954
0.614055
0.610314
0.606714
0.603245
0.599895
0.596654
0.593513
0.590461
0.587492
0.584597
0.58177
0.579002
0.576286
0.573617
0.570987
0.568392
0.565825
0.563284
0.560765
0.558264
0.55578
0.553311
0.550858
0.548421
0.546
0.543598
0.541217
0.538859
0.536528
0.534225
0.531955
0.52972
0.527522
0.525362
0.523243
0.521164
0.519125
0.517127
0.515167
0.513245
0.511359
0.509506
0.507684
0.505892
0.504128
0.502389
0.500676
0.498986
0.497317
0.49567
0.494041
0.492431
0.490837
0.489257
0.487692
0.48614
0.4846
0.483071
0.481553
0.480046
0.478549
0.477062
0.475586
0.474119
0.472661
0.471212
0.46977
0.468337
0.46691
0.46549
0.464074
0.462662
0.46125
0.459836
0.458416
0.456983
0.455532
0.454053
0.452533
0.450956
0.449298
0.447528
0.445597
0.443436
0.440938
0.437943
0.434199
0.429313
0.422642
0.414278
0.408669
0.404704
0.401493
0.39845
0.395134
0.391143
0.386064
0.379477
0.367447
0.339152
0.206701
0.200271
0.200005
0.204757
0.277958
0.27679
0.278976
0.294888
0.309221
0.331749
0.354698
0.383472
0.386944
0.391189
0.397733
0.404674
0.41109
0.416669
0.421256
0.424582
0.42547
0.788227
0.78599
0.78247
0.777619
0.771573
0.764579
0.756915
0.748828
0.740518
0.732133
0.723785
0.715555
0.707503
0.699671
0.692092
0.684784
0.677762
0.671032
0.664597
0.658454
0.652598
0.647023
0.641718
0.636674
0.631876
0.627311
0.622962
0.618814
0.614849
0.611052
0.607409
0.603904
0.600527
0.597265
0.59411
0.591053
0.588085
0.585199
0.582388
0.579644
0.576958
0.574324
0.571733
0.56918
0.566657
0.564159
0.561682
0.559221
0.556772
0.554335
0.551907
0.549488
0.547078
0.54468
0.542295
0.539926
0.537577
0.535251
0.532951
0.530683
0.528448
0.526249
0.524091
0.521973
0.519897
0.517864
0.515873
0.513922
0.51201
0.510135
0.508295
0.506486
0.504707
0.502956
0.501231
0.499531
0.497854
0.496198
0.494564
0.492948
0.49135
0.489768
0.488199
0.486644
0.4851
0.483566
0.482041
0.480526
0.479018
0.477519
0.476027
0.474543
0.473068
0.471598
0.470134
0.468674
0.467219
0.465766
0.464316
0.462865
0.461411
0.459951
0.458482
0.456996
0.455488
0.453948
0.452363
0.450716
0.448984
0.447135
0.44512
0.44287
0.440278
0.437181
0.433323
0.428291
0.421324
0.410861
0.39657
0.390969
0.387656
0.385208
0.383
0.380677
0.377956
0.374577
0.370248
0.358084
0.318044
0.239349
0.202115
0.200057
0.20003
0.202082
0.202965
0.204195
0.206696
0.208445
0.280903
0.293842
0.347433
0.371148
0.389586
0.395659
0.402098
0.408527
0.414454
0.419541
0.423397
0.424773
0.779721
0.777168
0.773386
0.768444
0.762513
0.755806
0.748537
0.740894
0.733033
0.725078
0.717128
0.709258
0.701527
0.693981
0.686654
0.679569
0.672745
0.66619
0.659912
0.653912
0.648188
0.642737
0.637551
0.632622
0.627939
0.623488
0.619255
0.615222
0.611371
0.607687
0.604152
0.600752
0.597475
0.59431
0.59125
0.588286
0.585413
0.582623
0.579907
0.577259
0.57467
0.57213
0.569632
0.567169
0.564732
0.562315
0.559914
0.557522
0.555136
0.552754
0.550373
0.547993
0.545616
0.543242
0.540875
0.538519
0.536178
0.533856
0.531557
0.529287
0.52705
0.524849
0.522688
0.52057
0.518497
0.516468
0.514484
0.512543
0.510644
0.508783
0.506957
0.505163
0.5034
0.501664
0.499954
0.498269
0.496608
0.494968
0.493349
0.491749
0.490166
0.488598
0.487043
0.4855
0.483966
0.482441
0.480922
0.47941
0.477903
0.476402
0.474906
0.473414
0.47193
0.470448
0.468968
0.467489
0.46601
0.46453
0.463047
0.461558
0.46006
0.458549
0.45702
0.455464
0.453874
0.452236
0.450535
0.448748
0.446843
0.444775
0.442478
0.439855
0.436757
0.432959
0.42811
0.421612
0.412241
0.397025
0.374917
0.371297
0.368785
0.367209
0.366121
0.365298
0.364378
0.363293
0.361854
0.346544
0.286465
0.217838
0.200962
0.200027
0.200001
0.200036
0.200069
0.200125
0.200213
0.200248
0.205847
0.207559
0.227445
0.365856
0.389255
0.39487
0.400823
0.40699
0.412937
0.418245
0.422424
0.424138
0.770227
0.76759
0.763811
0.759002
0.753329
0.746972
0.740104
0.732879
0.725427
0.717858
0.710263
0.702716
0.695274
0.687986
0.680887
0.674005
0.66736
0.660966
0.654832
0.648963
0.643361
0.638025
0.632951
0.628134
0.623564
0.619231
0.615119
0.61121
0.607485
0.603924
0.600509
0.597223
0.594055
0.590996
0.588039
0.585179
0.58241
0.579727
0.577121
0.574584
0.572107
0.569678
0.56729
0.564932
0.562597
0.560277
0.557966
0.555657
0.553346
0.551028
0.548703
0.54637
0.544029
0.541683
0.539336
0.536993
0.534658
0.532337
0.530037
0.527762
0.525518
0.523311
0.521144
0.519023
0.516948
0.514923
0.512947
0.511017
0.509132
0.507287
0.505479
0.503703
0.501958
0.500239
0.498547
0.496879
0.495236
0.493614
0.492014
0.490433
0.488868
0.487318
0.48578
0.484252
0.482732
0.481217
0.479707
0.4782
0.476696
0.475193
0.473693
0.472195
0.470701
0.469207
0.467711
0.466212
0.464708
0.463198
0.46168
0.46015
0.458604
0.457037
0.455442
0.45381
0.45213
0.450385
0.448556
0.446611
0.444511
0.442194
0.439573
0.436522
0.432851
0.428281
0.422378
0.414393
0.402676
0.383136
0.357909
0.330643
0.30984
0.278404
0.236575
0.213206
0.223335
0.250787
0.315274
0.307367
0.238959
0.201846
0.200066
0.200002
0.2
0.200001
0.200002
0.200003
0.200006
0.200006
0.200169
0.200238
0.201729
0.383871
0.389383
0.394464
0.400299
0.406108
0.411923
0.417286
0.421634
0.423559
0.760502
0.7579
0.754242
0.749644
0.744258
0.738238
0.731731
0.724868
0.717767
0.710528
0.703237
0.695965
0.688773
0.681707
0.674807
0.668101
0.661612
0.655357
0.649346
0.643589
0.638091
0.632853
0.627878
0.623162
0.6187
0.614483
0.610496
0.60672
0.603132
0.599708
0.596425
0.593265
0.590216
0.58727
0.584424
0.581676
0.579024
0.576461
0.573981
0.571573
0.569226
0.566929
0.564671
0.562439
0.560225
0.558021
0.555818
0.553608
0.551387
0.549148
0.546889
0.54461
0.542311
0.539997
0.537671
0.53534
0.53301
0.530688
0.528381
0.526096
0.52384
0.52162
0.519442
0.517312
0.515226
0.513191
0.511215
0.509298
0.507428
0.505603
0.503816
0.502062
0.500338
0.498641
0.496969
0.495323
0.493701
0.492102
0.490525
0.488968
0.487427
0.485901
0.484386
0.482878
0.481376
0.479876
0.478377
0.476878
0.475378
0.473876
0.472372
0.470867
0.46936
0.467853
0.466341
0.46482
0.463291
0.461749
0.460193
0.458619
0.457021
0.455393
0.453728
0.452013
0.450234
0.448372
0.446399
0.444277
0.441953
0.439351
0.436362
0.432832
0.42854
0.423164
0.416207
0.406778
0.392748
0.369005
0.344794
0.292076
0.222611
0.200544
0.200005
0.200048
0.201985
0.203275
0.201991
0.212335
0.203016
0.200158
0.200005
0.2
0.2
0.2
0.2
0.2
0.2
0.2
0.200003
0.200004
0.231311
0.384455
0.389387
0.39416
0.399832
0.405538
0.411218
0.416563
0.420982
0.423022
0.750976
0.748456
0.744946
0.74056
0.735432
0.729697
0.723485
0.716915
0.710095
0.703121
0.696074
0.689027
0.682037
0.675154
0.668416
0.661853
0.65549
0.649344
0.643428
0.637755
0.632333
0.627168
0.622266
0.61763
0.61326
0.609151
0.60529
0.601656
0.598221
0.594951
0.591818
0.588798
0.585878
0.583055
0.580328
0.577702
0.575176
0.572749
0.570413
0.568157
0.565966
0.563825
0.561721
0.559641
0.557574
0.55551
0.553438
0.551351
0.549239
0.547095
0.544917
0.542703
0.540455
0.538177
0.535874
0.533555
0.531227
0.528899
0.526579
0.524277
0.522001
0.519759
0.517561
0.515392
0.513275
0.511221
0.509237
0.507325
0.505478
0.503679
0.50192
0.500194
0.498496
0.496824
0.495176
0.493554
0.491956
0.490384
0.488835
0.487307
0.485797
0.484302
0.482817
0.481337
0.47986
0.478381
0.476899
0.475411
0.473918
0.472419
0.470914
0.469403
0.467885
0.466366
0.464837
0.463294
0.461737
0.460162
0.458566
0.456945
0.455291
0.453598
0.451855
0.450048
0.448159
0.446162
0.444024
0.441697
0.439115
0.436188
0.432789
0.428746
0.423814
0.417645
0.409688
0.398881
0.382449
0.354168
0.334966
0.25021
0.200733
0.200006
0.2
0.2
0.200018
0.200053
0.200057
0.20045
0.200135
0.200006
0.2
0.2
0.2
0.2
0.2
0.2
0.2
0.2
0.2
0.201454
0.30991
0.384344
0.389234
0.393902
0.399418
0.40505
0.410694
0.415993
0.420427
0.422516
0.741868
0.739435
0.736059
0.731846
0.726918
0.721397
0.715403
0.709047
0.702432
0.695651
0.688785
0.681903
0.675065
0.668318
0.6617
0.655242
0.648966
0.642892
0.637033
0.631405
0.626017
0.620882
0.616012
0.611418
0.607107
0.603085
0.599343
0.59586
0.592599
0.589512
0.586556
0.583699
0.580925
0.578234
0.575633
0.573134
0.570747
0.568474
0.566306
0.56423
0.562228
0.560278
0.558363
0.556468
0.554581
0.552689
0.550781
0.548846
0.546871
0.544847
0.542769
0.540635
0.538447
0.53621
0.533933
0.531625
0.529296
0.526956
0.524617
0.522287
0.519979
0.517704
0.51544
0.513219
0.511058
0.508971
0.506971
0.505064
0.503244
0.50148
0.499758
0.498066
0.496399
0.494755
0.493134
0.491537
0.489967
0.488424
0.486908
0.485416
0.483945
0.48249
0.481044
0.479602
0.478159
0.476708
0.475248
0.473778
0.472296
0.470802
0.469298
0.467782
0.466256
0.464722
0.463177
0.461613
0.460028
0.458418
0.456779
0.455105
0.453389
0.45162
0.449787
0.447871
0.44585
0.443693
0.441359
0.438791
0.435915
0.432628
0.428794
0.42423
0.418683
0.411787
0.402941
0.390849
0.371812
0.33763
0.325788
0.219686
0.200492
0.200008
0.2
0.2
0.2
0.200001
0.200001
0.20001
0.200003
0.2
0.2
0.2
0.2
0.2
0.2
0.2
0.2
0.200001
0.200095
0.20919
0.333202
0.384158
0.389053
0.393685
0.399092
0.404632
0.410218
0.415505
0.419935
0.42203
0.733281
0.730921
0.727644
0.723548
0.718748
0.71336
0.707496
0.701267
0.694774
0.68811
0.681354
0.674577
0.667835
0.661173
0.654629
0.648228
0.641994
0.635943
0.63009
0.624449
0.619034
0.613862
0.608953
0.604328
0.599912
0.595812
0.592164
0.588846
0.585807
0.582969
0.580257
0.577617
0.575027
0.572489
0.570026
0.567668
0.56544
0.56335
0.561392
0.559549
0.557793
0.556094
0.554425
0.55277
0.551114
0.549447
0.547753
0.546017
0.544223
0.542356
0.540407
0.538375
0.536263
0.534078
0.53183
0.529533
0.527199
0.524841
0.522471
0.520102
0.517746
0.515394
0.513049
0.51074
0.508491
0.506327
0.504281
0.50237
0.500588
0.498873
0.497202
0.495558
0.493932
0.492322
0.490731
0.489164
0.487626
0.48612
0.484646
0.483201
0.481783
0.480383
0.478994
0.477605
0.47621
0.4748
0.473374
0.471928
0.470463
0.46898
0.46748
0.465963
0.464429
0.462878
0.461317
0.459731
0.458114
0.456465
0.454775
0.45304
0.451248
0.449388
0.447444
0.445395
0.443213
0.440862
0.438296
0.435452
0.432251
0.428585
0.424318
0.419266
0.413176
0.405676
0.396111
0.382934
0.361405
0.321688
0.261093
0.206885
0.200121
0.200002
0.2
0.2
0.2
0.2
0.2
0.2
0.2
0.2
0.2
0.2
0.2
0.2
0.2
0.2
0.2
0.200003
0.20018
0.209636
0.351877
0.384126
0.38895
0.39353
0.39883
0.40428
0.409797
0.415044
0.419456
0.421549
0.725259
0.722947
0.719722
0.715679
0.710928
0.705581
0.699753
0.693556
0.687095
0.680465
0.673746
0.667007
0.6603
0.653669
0.647145
0.640749
0.6345
0.62841
0.622492
0.616756
0.611219
0.605899
0.600663
0.595294
0.590035
0.585101
0.580837
0.577794
0.575198
0.572903
0.57073
0.568568
0.566365
0.564128
0.56191
0.559788
0.557829
0.55606
0.554478
0.553056
0.551747
0.550492
0.549249
0.547994
0.546717
0.545408
0.544051
0.542627
0.54111
0.53948
0.537724
0.535842
0.533838
0.531724
0.529518
0.527236
0.524895
0.522511
0.5201
0.517674
0.515249
0.512778
0.5103
0.507833
0.505402
0.503057
0.500875
0.498927
0.4972
0.495563
0.493975
0.492406
0.490839
0.489273
0.487719
0.486188
0.484691
0.483233
0.481816
0.48044
0.479099
0.477785
0.476485
0.475183
0.473865
0.472523
0.47115
0.469745
0.468309
0.466846
0.465357
0.463844
0.462308
0.460746
0.459171
0.457563
0.455913
0.454216
0.452465
0.450651
0.448762
0.446785
0.4447
0.442483
0.440102
0.437521
0.434689
0.431545
0.42801
0.423979
0.419321
0.413857
0.407342
0.399396
0.389311
0.375273
0.351572
0.309271
0.233037
0.203617
0.200064
0.200001
0.2
0.2
0.2
0.2
0.2
0.2
0.2
0.2
0.2
0.2
0.2
0.2
0.2
0.2
0.2
0.200004
0.200162
0.205393
0.378234
0.384494
0.38897
0.393427
0.398602
0.403959
0.409405
0.414601
0.41898
0.421066
0.717816
0.715524
0.7123
0.708237
0.703444
0.698037
0.692138
0.685867
0.679338
0.672652
0.66589
0.659119
0.652386
0.645726
0.639161
0.632708
0.626373
0.620161
0.614076
0.608123
0.602309
0.596352
0.589865
0.583065
0.575893
0.568823
0.562382
0.559121
0.557304
0.556128
0.555088
0.553914
0.552464
0.550737
0.548856
0.54703
0.545455
0.544211
0.543301
0.542682
0.542256
0.541882
0.541468
0.540975
0.540401
0.539749
0.539005
0.538142
0.53712
0.535905
0.534481
0.53285
0.531027
0.529035
0.526899
0.524647
0.522304
0.519891
0.517427
0.514925
0.512376
0.50974
0.50704
0.504278
0.501471
0.49869
0.496126
0.494056
0.492418
0.490931
0.489501
0.48807
0.486606
0.485108
0.4836
0.482115
0.480671
0.479282
0.477951
0.476681
0.475467
0.4743
0.473157
0.472008
0.470831
0.469608
0.468331
0.467
0.46562
0.464197
0.462735
0.461238
0.459707
0.458141
0.456538
0.454911
0.453225
0.451474
0.449649
0.44774
0.445734
0.443612
0.441355
0.438936
0.436324
0.433484
0.430371
0.42693
0.423087
0.418747
0.413784
0.408028
0.401234
0.393014
0.382594
0.367867
0.342182
0.299779
0.216345
0.200794
0.200015
0.2
0.2
0.2
0.2
0.2
0.2
0.2
0.2
0.2
0.2
0.2
0.2
0.2
0.2
0.2
0.2
0.200009
0.200443
0.216427
0.379003
0.384613
0.388913
0.393292
0.398364
0.403638
0.409015
0.414161
0.418503
0.420582
0.71094
0.708628
0.705346
0.701191
0.696279
0.690735
0.684591
0.678114
0.671403
0.664563
0.657674
0.650799
0.643973
0.63722
0.630549
0.62396
0.617447
0.610998
0.604598
0.598232
0.591679
0.58391
0.575047
0.565085
0.553793
0.543089
0.531972
0.528175
0.527643
0.528834
0.530118
0.530893
0.530789
0.529736
0.527804
0.524832
0.52361
0.523117
0.52337
0.52431
0.525731
0.527211
0.528488
0.529497
0.530278
0.530881
0.531316
0.531538
0.53147
0.531048
0.530247
0.529081
0.527587
0.525813
0.523811
0.521627
0.519299
0.516859
0.514331
0.511729
0.508992
0.506116
0.503069
0.499808
0.496292
0.492569
0.48906
0.486765
0.485287
0.484115
0.483011
0.481852
0.48057
0.479161
0.477688
0.476235
0.474846
0.473539
0.472324
0.47121
0.4702
0.469285
0.468427
0.467564
0.466647
0.465644
0.464543
0.463347
0.462067
0.460718
0.45931
0.45785
0.456343
0.454786
0.453176
0.451529
0.449814
0.448006
0.446096
0.444075
0.441927
0.439635
0.437177
0.43453
0.431667
0.428561
0.42518
0.421482
0.417404
0.412859
0.407722
0.401822
0.394907
0.386572
0.375958
0.360595
0.332796
0.292805
0.208086
0.200095
0.200001
0.2
0.2
0.2
0.2
0.2
0.2
0.2
0.2
0.2
0.2
0.2
0.2
0.2
0.2
0.2
0.2
0.200015
0.201427
0.274884
0.37891
0.384477
0.388736
0.393085
0.398081
0.403288
0.408609
0.41371
0.418022
0.420094
0.704601
0.702208
0.698781
0.694421
0.68926
0.683442
0.677052
0.670332
0.663427
0.656139
0.648933
0.641875
0.63489
0.627975
0.621118
0.614296
0.607477
0.600621
0.593673
0.586565
0.577608
0.566463
0.552746
0.53845
0.522161
0.510499
0.496564
0.493999
0.494304
0.498479
0.50235
0.505195
0.50632
0.505352
0.500694
0.493905
0.491084
0.490912
0.492272
0.495264
0.499716
0.504315
0.508304
0.511605
0.514432
0.516996
0.519376
0.521494
0.523147
0.524166
0.524489
0.524147
0.523228
0.521835
0.520066
0.518007
0.515724
0.513266
0.510664
0.507935
0.504982
0.50178
0.498248
0.494255
0.489612
0.484251
0.478955
0.47663
0.475448
0.474924
0.474414
0.473726
0.472708
0.471341
0.469497
0.467819
0.466441
0.465198
0.4641
0.463173
0.462446
0.461932
0.461581
0.461228
0.460776
0.460159
0.459357
0.458383
0.457267
0.456038
0.454721
0.453333
0.451878
0.450356
0.448758
0.447075
0.445343
0.443484
0.44149
0.439353
0.437058
0.434589
0.431924
0.429046
0.425936
0.422587
0.418991
0.415124
0.410934
0.406332
0.401182
0.395295
0.388411
0.380092
0.369358
0.353235
0.322523
0.28797
0.205863
0.200081
0.200001
0.2
0.2
0.2
0.2
0.2
0.2
0.2
0.2
0.2
0.2
0.2
0.2
0.2
0.2
0.2
0.200005
0.200439
0.216186
0.320887
0.378694
0.384235
0.388472
0.392798
0.397735
0.40289
0.408167
0.413239
0.417533
0.419603
0.698782
0.696239
0.692564
0.687864
0.682291
0.676025
0.669222
0.662122
0.65489
0.647425
0.640025
0.632166
0.624897
0.617734
0.61059
0.6034
0.596087
0.588554
0.58067
0.571162
0.558271
0.540561
0.520295
0.505019
0.487537
0.481955
0.47732
0.45572
0.45009
0.486423
0.488713
0.490659
0.49115
0.489007
0.480645
0.469304
0.465958
0.463855
0.464274
0.467019
0.473308
0.48029
0.486078
0.490721
0.494847
0.498979
0.50335
0.507835
0.511911
0.515061
0.517062
0.517944
0.517866
0.517019
0.515581
0.513697
0.511478
0.509002
0.506314
0.503427
0.500228
0.496664
0.492591
0.487761
0.481729
0.474391
0.467387
0.46566
0.464838
0.465316
0.465505
0.465354
0.464551
0.462956
0.45934
0.457038
0.455413
0.454144
0.453071
0.452247
0.451767
0.451753
0.45222
0.452678
0.452962
0.452935
0.452561
0.451884
0.450975
0.449897
0.448699
0.44741
0.446043
0.444592
0.443039
0.441365
0.439586
0.437692
0.435623
0.433375
0.43094
0.428303
0.425448
0.422362
0.419038
0.415493
0.411767
0.407857
0.403713
0.399234
0.394239
0.38851
0.381776
0.37357
0.362737
0.345538
0.309731
0.283791
0.205329
0.200079
0.200001
0.2
0.2
0.2
0.2
0.2
0.2
0.2
0.2
0.2
0.2
0.2
0.2
0.2
0.200004
0.200051
0.201023
0.211515
0.256248
0.347917
0.378609
0.383988
0.388151
0.39243
0.39731
0.402423
0.407676
0.412739
0.417035
0.419111
0.693457
0.690687
0.686638
0.68142
0.675215
0.668271
0.660845
0.653206
0.645524
0.637765
0.63006
0.622127
0.614059
0.606157
0.598557
0.590788
0.582677
0.574021
0.564533
0.549712
0.530231
0.50438
0.481711
0.473185
0.466331
0.353254
0.220849
0.207222
0.221423
0.242823
0.43316
0.478706
0.479667
0.476095
0.461663
0.454358
0.414792
0.305894
0.295952
0.412758
0.463187
0.46834
0.472125
0.475
0.477868
0.481477
0.48635
0.492556
0.499138
0.504722
0.508674
0.510966
0.511838
0.511589
0.510493
0.508771
0.506588
0.504063
0.501261
0.498192
0.494769
0.490907
0.486406
0.480886
0.47355
0.464976
0.459616
0.446895
0.438291
0.457909
0.458367
0.458589
0.4578
0.454881
0.447206
0.443049
0.441277
0.439884
0.437893
0.436964
0.436532
0.437053
0.439152
0.441092
0.442665
0.443598
0.443835
0.443528
0.442848
0.441929
0.440859
0.439696
0.438464
0.437147
0.43569
0.434059
0.43224
0.430321
0.428207
0.425904
0.423406
0.420699
0.417759
0.414561
0.411091
0.407379
0.403605
0.399776
0.395839
0.391677
0.386982
0.381497
0.374971
0.366948
0.356053
0.337567
0.295067
0.212816
0.200355
0.200005
0.2
0.2
0.2
0.2
0.2
0.2
0.2
0.2
0.2
0.2
0.2
0.2
0.2
0.2
0.200004
0.200106
0.202528
0.220889
0.28019
0.3732
0.378895
0.383766
0.387762
0.391961
0.39678
0.401864
0.407138
0.412201
0.416513
0.418611
0.688596
0.685508
0.680925
0.674939
0.667782
0.659829
0.651508
0.64314
0.634878
0.626705
0.618636
0.610506
0.602249
0.593344
0.584426
0.575698
0.566269
0.555666
0.540341
0.514945
0.491023
0.464096
0.455678
0.37585
0.22566
0.203353
0.200303
0.200085
0.200232
0.200523
0.209011
0.41105
0.463703
0.458865
0.440788
0.282564
0.201796
0.200839
0.201234
0.211161
0.424682
0.460921
0.462477
0.463032
0.463829
0.465723
0.469717
0.476949
0.486507
0.494729
0.500558
0.504108
0.505778
0.505991
0.505109
0.503428
0.501174
0.498515
0.495555
0.492302
0.48874
0.484766
0.480147
0.474321
0.465958
0.457022
0.391793
0.209484
0.205601
0.223345
0.403739
0.45026
0.450305
0.446527
0.43796
0.375203
0.220415
0.239075
0.204391
0.200746
0.218913
0.385205
0.43232
0.433711
0.435158
0.436094
0.436196
0.435712
0.434875
0.433838
0.432702
0.431537
0.430382
0.429208
0.427857
0.426269
0.424444
0.422419
0.420271
0.417947
0.415436
0.41271
0.409723
0.406406
0.402676
0.398523
0.394655
0.390958
0.387356
0.383726
0.379387
0.374099
0.367752
0.359956
0.348991
0.32902
0.281436
0.206091
0.200123
0.200002
0.2
0.2
0.2
0.2
0.2
0.2
0.2
0.2
0.2
0.2
0.2
0.2
0.2
0.2
0.200002
0.200058
0.202679
0.217388
0.273574
0.373539
0.378774
0.383349
0.387217
0.391333
0.396178
0.401225
0.40649
0.411579
0.415943
0.4181
0.684163
0.68066
0.675331
0.668201
0.659571
0.650086
0.640495
0.631169
0.622196
0.613512
0.605026
0.596568
0.587937
0.578723
0.568056
0.556976
0.545129
0.530625
0.497236
0.459967
0.442777
0.433099
0.24458
0.205604
0.200533
0.200045
0.200003
0.200001
0.200002
0.200004
0.200126
0.234407
0.351809
0.433971
0.390704
0.224686
0.200389
0.200006
0.200007
0.200108
0.216245
0.433837
0.370814
0.325322
0.342483
0.404696
0.441824
0.473258
0.481739
0.489062
0.494786
0.49855
0.500428
0.500714
0.49975
0.497855
0.495311
0.492355
0.489177
0.485775
0.482204
0.478395
0.474145
0.468658
0.460277
0.330201
0.205556
0.200124
0.200043
0.200359
0.20968
0.417454
0.444848
0.436861
0.427616
0.35264
0.205438
0.200543
0.200048
0.200012
0.200139
0.202393
0.205843
0.375501
0.430004
0.430643
0.430049
0.429003
0.427746
0.426399
0.425042
0.423755
0.422625
0.421661
0.42041
0.418817
0.416943
0.414845
0.412618
0.410207
0.407605
0.404761
0.401599
0.397967
0.393571
0.388062
0.384219
0.380761
0.377668
0.374325
0.370192
0.365148
0.359064
0.351452
0.339726
0.315584
0.259324
0.20245
0.200039
0.2
0.2
0.2
0.2
0.2
0.2
0.2
0.2
0.2
0.2
0.2
0.2
0.2
0.2
0.2
0.200003
0.200051
0.200584
0.20297
0.211032
0.37307
0.378254
0.382683
0.386511
0.390617
0.395385
0.400409
0.405694
0.410851
0.415314
0.417578
0.680124
0.676118
0.669769
0.660889
0.649853
0.637872
0.626444
0.61587
0.606071
0.596829
0.587887
0.57897
0.569764
0.559842
0.54851
0.533495
0.51561
0.49067
0.429686
0.412716
0.29188
0.216651
0.201383
0.200098
0.200007
0.200001
0.2
0.2
0.2
0.2
0.200003
0.20067
0.258614
0.417588
0.336899
0.211188
0.200178
0.200002
0.2
0.200001
0.342832
0.404727
0.269666
0.205271
0.210066
0.355754
0.418019
0.470338
0.478815
0.485497
0.490781
0.494283
0.495928
0.49589
0.494454
0.491951
0.488732
0.48494
0.481456
0.477931
0.474478
0.471049
0.467438
0.462903
0.455645
0.283796
0.203063
0.200049
0.200001
0.200005
0.200231
0.398374
0.421512