/*--------------------------------*- C++ -*----------------------------------*\
| =========                 |                                                 |
| \\      /  F ield         | OpenFOAM: The Open Source CFD Toolbox           |
|  \\    /   O peration     | Version:  2.1.0                                 |
|   \\  /    A nd           | Web:      www.OpenFOAM.org                      |
|    \\/     M anipulation  |                                                 |
\*---------------------------------------------------------------------------*/
FoamFile
{
    version     2.0;
    format      ascii;
    class       volScalarField;
    location    "40150";
    object      kr_o;
}
// * * * * * * * * * * * * * * * * * * * * * * * * * * * * * * * * * * * * * //

dimensions      [0 0 0 0 0 0 0];

internalField   nonuniform List<scalar> 
8000
(
0.00920672
0.011737
0.0153852
0.0199291
0.0251724
0.0309567
0.0371483
0.0436296
0.0502994
0.0570709
0.0638745
0.0706545
0.0773562
0.0839347
0.0903591
0.0966119
0.102686
0.108583
0.114307
0.11987
0.125289
0.130584
0.135779
0.1409
0.14598
0.151057
0.156175
0.161393
0.166784
0.172441
0.178491
0.185105
0.192533
0.20116
0.211649
0.225294
0.245043
0.278593
0.347048
0.478038
0.0117368
0.0143211
0.0179791
0.0224956
0.0276919
0.0334223
0.0395626
0.0460025
0.0526434
0.0593999
0.0662032
0.0729912
0.0797044
0.0862956
0.0927326
0.0989971
0.105081
0.110985
0.116713
0.122274
0.127685
0.132964
0.138132
0.143213
0.148236
0.153235
0.158254
0.163349
0.168594
0.174084
0.179952
0.186375
0.193611
0.202052
0.212366
0.225854
0.245474
0.278961
0.347515
0.478555
0.0153849
0.0179791
0.0216006
0.0260474
0.0311606
0.0368083
0.0428761
0.0492605
0.0558666
0.0626108
0.069421
0.0762237
0.0829535
0.08956
0.0960095
0.102283
0.108371
0.114273
0.11999
0.125532
0.130913
0.136148
0.141253
0.146249
0.151159
0.156014
0.160854
0.165735
0.170734
0.175955
0.181541
0.187686
0.194659
0.202861
0.212966
0.226276
0.245757
0.279167
0.34778
0.478867
0.0199289
0.0224955
0.0260474
0.0304032
0.0354196
0.0409776
0.0469734
0.0533104
0.0598985
0.0666546
0.0734944
0.0803316
0.0870933
0.0937257
0.100194
0.106478
0.11257
0.118464
0.124164
0.129677
0.135014
0.140186
0.145202
0.150078
0.15483
0.159482
0.164069
0.168647
0.173297
0.178138
0.183331
0.189097
0.195724
0.203628
0.213486
0.2266
0.245936
0.279269
0.347935
0.479086
0.0251722
0.0276919
0.0311605
0.0354196
0.0403412
0.0458202
0.0517635
0.0580835
0.0646953
0.0715093
0.078421
0.0853289
0.0921509
0.09883
0.105331
0.111637
0.117736
0.123625
0.129308
0.134791
0.140081
0.145182
0.150098
0.154834
0.159397
0.1638
0.168069
0.172254
0.176443
0.180771
0.185436
0.190699
0.196881
0.204415
0.213983
0.226882
0.246073
0.279349
0.348104
0.479352
0.0309565
0.0334222
0.0368083
0.0409776
0.0458202
0.0512458
0.0571749
0.0635324
0.0702374
0.0771819
0.0842375
0.0912775
0.0982069
0.104967
0.111526
0.117869
0.123988
0.129883
0.135562
0.141026
0.14628
0.15132
0.156144
0.160742
0.165108
0.169235
0.173133
0.176839
0.180438
0.184089
0.188042
0.192632
0.198237
0.205312
0.214537
0.227201
0.246257
0.279515
0.348443
0.479837
0.0371481
0.0395625
0.0428761
0.0469734
0.0517636
0.0571749
0.0631479
0.0696247
0.0765224
0.0837183
0.0910454
0.0983211
0.105432
0.112324
0.118976
0.125382
0.131544
0.137471
0.143171
0.148645
0.153894
0.158909
0.163676
0.168171
0.172366
0.176228
0.179732
0.182882
0.185743
0.188492
0.191459
0.195129
0.199965
0.206451
0.215262
0.227663
0.246596
0.279899
0.349139
0.480733
0.0436294
0.0460024
0.0492605
0.0533105
0.0580836
0.0635324
0.0696247
0.0763224
0.0835637
0.091229
0.0990822
0.106774
0.114178
0.121273
0.128066
0.134575
0.140822
0.146825
0.152593
0.158132
0.163438
0.168498
0.173288
0.177767
0.18188
0.185554
0.188706
0.191266
0.193231
0.194755
0.196273
0.198594
0.202341
0.208033
0.216314
0.228405
0.247225
0.280651
0.350395
0.482241
0.0502993
0.0526434
0.0558666
0.0598986
0.0646954
0.0702375
0.0765225
0.0835637
0.0913825
0.0999545
0.108974
0.117405
0.125265
0.132658
0.139665
0.146348
0.152752
0.158908
0.164833
0.170537
0.176018
0.181261
0.186233
0.190879
0.195117
0.198823
0.201823
0.203904
0.20486
0.204667
0.203805
0.203851
0.205843
0.210346
0.217891
0.229582
0.248285
0.281928
0.352416
0.484542
0.0570707
0.0593998
0.0626109
0.0666548
0.0715094
0.077182
0.0837184
0.0912292
0.0999546
0.11041
0.12326
0.132967
0.141509
0.149361
0.156734
0.163749
0.170482
0.176982
0.183281
0.189399
0.195341
0.201099
0.206641
0.211911
0.216809
0.221165
0.224701
0.226955
0.227197
0.224491
0.218548
0.213028
0.211348
0.213781
0.220206
0.231343
0.249905
0.283865
0.35538
0.487766
0.0638743
0.0662031
0.0694211
0.0734947
0.0784212
0.0842377
0.0910457
0.0990823
0.108975
0.123261
0.476912
0.492673
0.484517
0.479532
0.476832
0.475581
0.475324
0.475768
0.476711
0.477981
0.479436
0.480927
0.482286
0.483311
0.483712
0.483012
0.480305
0.473482
0.456395
0.410468
0.224251
0.218181
0.216008
0.217499
0.223075
0.23369
0.252139
0.286546
0.359408
0.491953
0.0706543
0.0729913
0.0762241
0.0803319
0.0853291
0.0912778
0.0983215
0.106774
0.117405
0.132968
0.492672
0.555235
0.557293
0.556405
0.555754
0.555357
0.555151
0.55509
0.555134
0.555248
0.555405
0.555571
0.555717
0.555803
0.555781
0.555572
0.555005
0.5537
0.550545
0.542318
0.230754
0.222805
0.220301
0.221298
0.226311
0.236535
0.254966
0.289985
0.364552
0.497045
0.077356
0.0797046
0.0829539
0.0870936
0.0921512
0.0982073
0.105432
0.114178
0.125265
0.141509
0.484515
0.557293
0.562137
0.562255
0.562214
0.562182
0.562166
0.562155
0.562153
0.562155
0.562161
0.562169
0.562176
0.56218
0.562175
0.562162
0.562128
0.562052
0.561885
0.561537
0.237061
0.227299
0.224472
0.225155
0.2298
0.23978
0.258321
0.294152
0.370804
0.502887
0.0839345
0.0862959
0.0895603
0.0937259
0.0988304
0.104967
0.112324
0.121273
0.132659
0.149361
0.479531
0.556405
0.562255
0.562487
0.56249
0.562489
0.562488
0.562487
0.562487
0.562487
0.562487
0.562488
0.562488
0.562488
0.562488
0.562488
0.562486
0.562484
0.562479
0.562468
0.243242
0.231775
0.228625
0.229075
0.233477
0.243341
0.26213
0.298988
0.37812
0.509253
0.0903592
0.092733
0.0960098
0.100194
0.105332
0.111527
0.118977
0.128066
0.139665
0.156735
0.476831
0.555754
0.562214
0.56249
0.5625
0.5625
0.5625
0.5625
0.5625
0.5625
0.5625
0.5625
0.5625
0.5625
0.5625
0.5625
0.5625
0.5625
0.5625
0.562499
0.249347
0.236275
0.232806
0.233063
0.237306
0.247158
0.266327
0.304436
0.38646
0.515876
0.0966122
0.0989975
0.102283
0.106479
0.111638
0.11787
0.125382
0.134576
0.146349
0.16375
0.475581
0.555357
0.562182
0.562489
0.5625
0.5625
0.5625
0.5625
0.5625
0.5625
0.5625
0.5625
0.5625
0.5625
0.5625
0.5625
0.5625
0.5625
0.5625
0.5625
0.255407
0.240823
0.237038
0.237126
0.241263
0.251188
0.270858
0.310442
0.395774
0.522474
0.102687
0.105082
0.108372
0.112571
0.117737
0.123988
0.131544
0.140823
0.152753
0.170483
0.475324
0.555151
0.562166
0.562488
0.5625
0.5625
0.5625
0.5625
0.5625
0.5625
0.5625
0.5625
0.5625
0.5625
0.5625
0.5625
0.5625
0.5625
0.5625
0.5625
0.261446
0.245436
0.241338
0.241267
0.245336
0.2554
0.27568
0.316966
0.405995
0.528781
0.108584
0.110986
0.114274
0.118465
0.123626
0.129884
0.137472
0.146825
0.158908
0.176983
0.475768
0.55509
0.562155
0.562487
0.5625
0.5625
0.5625
0.5625
0.5625
0.5625
0.5625
0.5625
0.5625
0.5625
0.5625
0.5625
0.5625
0.5625
0.5625
0.5625
0.267491
0.250136
0.245721
0.245495
0.24952
0.259773
0.28076
0.323977
0.417022
0.534572
0.114308
0.116713
0.119991
0.124165
0.129309
0.135562
0.143171
0.152593
0.164834
0.183282
0.476711
0.555134
0.562153
0.562487
0.5625
0.5625
0.5625
0.5625
0.5625
0.5625
0.5625
0.5625
0.5625
0.5625
0.5625
0.5625
0.5625
0.5625
0.5625
0.5625
0.27357
0.254946
0.250205
0.24982
0.253813
0.264292
0.286072
0.331454
0.428689
0.539686
0.11987
0.122275
0.125533
0.129678
0.134792
0.141027
0.148646
0.158132
0.170538
0.1894
0.477981
0.555248
0.562155
0.562487
0.5625
0.5625
0.5625
0.5625
0.5625
0.5625
0.5625
0.5625
0.5625
0.5625
0.5625
0.5625
0.5625
0.5625
0.5625
0.5625
0.279714
0.259895
0.25481
0.254254
0.258217
0.268944
0.291588
0.339372
0.440734
0.544029
0.125289
0.127686
0.130914
0.135015
0.140082
0.14628
0.153895
0.163438
0.176019
0.195342
0.479435
0.555406
0.562161
0.562487
0.5625
0.5625
0.5625
0.5625
0.5625
0.5625
0.5625
0.5625
0.5625
0.5625
0.5625
0.5625
0.5625
0.5625
0.5625
0.5625
0.28596
0.265019
0.259561
0.258814
0.262737
0.273719
0.297281
0.347693
0.452775
0.547578
0.130584
0.132965
0.136149
0.140186
0.145182
0.151321
0.15891
0.168499
0.181262
0.201099
0.480926
0.555571
0.562169
0.562488
0.5625
0.5625
0.5625
0.5625
0.5625
0.5625
0.5625
0.5625
0.5625
0.5625
0.5625
0.5625
0.5625
0.5625
0.5625
0.5625
0.292351
0.270367
0.264493
0.263525
0.267382
0.278605
0.303112
0.356343
0.464326
0.550366
0.135779
0.138133
0.141255
0.145203
0.150099
0.156145
0.163677
0.173289
0.186233
0.206642
0.482286
0.555717
0.562176
0.562488
0.5625
0.5625
0.5625
0.5625
0.5625
0.5625
0.5625
0.5625
0.5625
0.5625
0.5625
0.5625
0.5625
0.5625
0.5625
0.5625
0.298942
0.276004
0.269656
0.268419
0.272165
0.283583
0.309021
0.365176
0.474856
0.552461
0.140901
0.143214
0.14625
0.150079
0.154835
0.160743
0.168172
0.177768
0.19088
0.211912
0.483311
0.555803
0.56218
0.562488
0.5625
0.5625
0.5625
0.5625
0.5625
0.5625
0.5625
0.5625
0.5625
0.5625
0.5625
0.5625
0.5625
0.5625
0.5625
0.5625
0.305807
0.282025
0.275122
0.273544
0.277105
0.288629
0.314924
0.37394
0.483865
0.553946
0.145981
0.148237
0.15116
0.154831
0.159398
0.165108
0.172367
0.181881
0.195118
0.216809
0.483712
0.555781
0.562175
0.562488
0.5625
0.5625
0.5625
0.5625
0.5625
0.5625
0.5625
0.5625
0.5625
0.5625
0.5625
0.5625
0.5625
0.5625
0.5625
0.5625
0.313048
0.288566
0.280998
0.278974
0.282229
0.293711
0.320695
0.382247
0.490959
0.554895
0.151057
0.153236
0.156015
0.159483
0.163801
0.169236
0.176229
0.185555
0.198823
0.221165
0.483012
0.555572
0.562162
0.562488
0.5625
0.5625
0.5625
0.5625
0.5625
0.5625
0.5625
0.5625
0.5625
0.5625
0.5625
0.5625
0.5625
0.5625
0.5625
0.5625
0.320819
0.295835
0.287454
0.28482
0.287586
0.298797
0.32617
0.389579
0.495869
0.555355
0.156176
0.158256
0.160856
0.16407
0.16807
0.173134
0.179733
0.188707
0.201824
0.224701
0.480305
0.555005
0.562128
0.562486
0.5625
0.5625
0.5625
0.5625
0.5625
0.5625
0.5625
0.5625
0.5625
0.5625
0.5625
0.5625
0.5625
0.5625
0.5625
0.5625
0.329369
0.30417
0.294765
0.291266
0.293268
0.303868
0.331156
0.395351
0.49843
0.555336
0.161394
0.163351
0.165737
0.168648
0.172255
0.17684
0.182883
0.191267
0.203905
0.226956
0.473482
0.5537
0.562052
0.562484
0.5625
0.5625
0.5625
0.5625
0.5625
0.5625
0.5625
0.5625
0.5625
0.5625
0.5625
0.5625
0.5625
0.5625
0.5625
0.5625
0.339141
0.314153
0.303411
0.298638
0.299454
0.308957
0.335473
0.399033
0.498549
0.554796
0.166785
0.168595
0.170735
0.173298
0.176444
0.180439
0.185744
0.193232
0.204861
0.227198
0.456395
0.550545
0.561885
0.562479
0.5625
0.5625
0.5625
0.5625
0.5625
0.5625
0.5625
0.5625
0.5625
0.5625
0.5625
0.5625
0.5625
0.5625
0.5625
0.5625
0.351035
0.3269
0.314292
0.307551
0.306519
0.314234
0.339049
0.400308
0.496196
0.553638
0.172442
0.174085
0.175956
0.178139
0.180772
0.18409
0.188493
0.194757
0.204668
0.224491
0.410467
0.542318
0.561537
0.562468
0.562499
0.5625
0.5625
0.5625
0.5625
0.5625
0.5625
0.5625
0.5625
0.5625
0.5625
0.5625
0.5625
0.5625
0.5625
0.5625
0.367338
0.344831
0.329251
0.319242
0.315244
0.320158
0.342067
0.399218
0.49137
0.551729
0.178492
0.179953
0.181543
0.183333
0.185438
0.188043
0.19146
0.196274
0.203806
0.218549
0.224252
0.230755
0.237062
0.243242
0.249347
0.255407
0.261447
0.267492
0.27357
0.279714
0.28596
0.292351
0.298942
0.305807
0.313048
0.320819
0.329369
0.33914
0.351034
0.367336
0.380563
0.36853
0.35057
0.335756
0.327099
0.327708
0.345159
0.3963
0.483787
0.548721
0.185106
0.186376
0.187687
0.189098
0.1907
0.192633
0.19513
0.198595
0.203852
0.213029
0.218182
0.222806
0.2273
0.231776
0.236276
0.240823
0.245437
0.250137
0.254947
0.259896
0.26502
0.270367
0.276004
0.282025
0.288566
0.295835
0.30417
0.314153
0.326899
0.34483
0.368529
0.378276
0.370662
0.355888
0.343007
0.338169
0.349479
0.39264
0.473873
0.544161
0.192534
0.193612
0.19466
0.195726
0.196882
0.198239
0.199966
0.202342
0.205844
0.211349
0.21601
0.220302
0.224473
0.228626
0.232807
0.237039
0.241339
0.245722
0.250206
0.254811
0.259561
0.264493
0.269656
0.275122
0.280998
0.287454
0.294764
0.30341
0.314291
0.32925
0.350569
0.370661
0.378757
0.373087
0.360999
0.351932
0.356266
0.389726
0.4625
0.537642
0.201161
0.202053
0.202862
0.203629
0.204416
0.205313
0.206453
0.208034
0.210347
0.213782
0.2175
0.221299
0.225156
0.229076
0.233064
0.237127
0.241268
0.245496
0.249821
0.254255
0.258815
0.263525
0.268419
0.273545
0.278974
0.28482
0.291266
0.298638
0.307551
0.319242
0.335756
0.355887
0.373086
0.380048
0.375754
0.36708
0.365854
0.388954
0.450939
0.528886
0.211649
0.212367
0.212967
0.213487
0.213984
0.214538
0.215263
0.216315
0.217892
0.220208
0.223076
0.226312
0.229801
0.233478
0.237307
0.241264
0.245337
0.249521
0.253814
0.258218
0.262738
0.267383
0.272166
0.277105
0.282229
0.287586
0.293268
0.299454
0.306519
0.315244
0.327099
0.343006
0.360998
0.375753
0.381854
0.379324
0.376708
0.390854
0.440507
0.517889
0.225294
0.225855
0.226278
0.226601
0.226883
0.227202
0.227664
0.228406
0.229584
0.231344
0.233691
0.236537
0.239781
0.243342
0.247159
0.251189
0.255401
0.259774
0.264292
0.268945
0.27372
0.278605
0.283583
0.288629
0.293712
0.298798
0.303868
0.308957
0.314234
0.320158
0.327707
0.338168
0.351932
0.367079
0.379324
0.384806
0.385625
0.3945
0.432015
0.504948
0.245043
0.245476
0.245759
0.245937
0.246075
0.246258
0.246597
0.247226
0.248286
0.249906
0.25214
0.254967
0.258322
0.262131
0.266328
0.270859
0.275681
0.280761
0.286072
0.291589
0.297282
0.303112
0.309021
0.314924
0.320695
0.32617
0.331156
0.335473
0.339049
0.342067
0.345158
0.349478
0.356265
0.365853
0.376707
0.385624
0.390791
0.398191
0.425533
0.490571
0.278594
0.278962
0.279168
0.27927
0.27935
0.279516
0.2799
0.280653
0.281929
0.283866
0.286547
0.289986
0.294153
0.298989
0.304437
0.310443
0.316966
0.323978
0.331454
0.339372
0.347693
0.356343
0.365176
0.37394
0.382247
0.389579
0.395351
0.399033
0.400308
0.399218
0.3963
0.392639
0.389726
0.388953
0.390853
0.394499
0.39819
0.403442
0.421892
0.475816
0.347049
0.347516
0.347781
0.347936
0.348105
0.348444
0.34914
0.350396
0.352417
0.355381
0.359409
0.364553
0.370805
0.37812
0.386461
0.395775
0.405995
0.417022
0.428689
0.440734
0.452775
0.464327
0.474856
0.483865
0.49096
0.49587
0.498431
0.498549
0.496196
0.49137
0.483787
0.473873
0.4625
0.450939
0.440506
0.432014
0.425533
0.421892
0.427994
0.464982
0.478038
0.478555
0.478868
0.479087
0.479353
0.479838
0.480733
0.482242
0.484543
0.487766
0.491954
0.497045
0.502887
0.509253
0.515876
0.522474
0.528781
0.534572
0.539686
0.544029
0.547578
0.550366
0.552461
0.553946
0.554895
0.555355
0.555336
0.554796
0.553638
0.551729
0.548721
0.544161
0.537642
0.528886
0.517889
0.504948
0.490571
0.475816
0.464982
0.47468
0.00179097
0.00325118
0.00587665
0.00961895
0.014262
0.0195881
0.0254119
0.031577
0.037953
0.0444311
0.0509235
0.0573636
0.0637067
0.0699241
0.075991
0.0818908
0.0876166
0.0931699
0.0985607
0.103799
0.1089
0.11388
0.11876
0.123567
0.128327
0.133076
0.137855
0.142716
0.147723
0.152962
0.15854
0.164606
0.171365
0.179122
0.188358
0.199887
0.215266
0.238254
0.282239
0.399303
0.00325089
0.00503508
0.00792523
0.0118115
0.0165129
0.0218509
0.0276653
0.0338148
0.0401769
0.0466466
0.0531377
0.0595841
0.0659413
0.0721761
0.07826
0.0841751
0.0899136
0.0954766
0.100873
0.106111
0.111204
0.116168
0.121021
0.125786
0.130487
0.135158
0.139837
0.144574
0.149436
0.154508
0.159906
0.165783
0.172353
0.179928
0.188993
0.200369
0.215616
0.238497
0.282407
0.399498
0.00587632
0.00792528
0.0110055
0.0149811
0.0197012
0.0250199
0.0308004
0.0369166
0.0432537
0.0497103
0.0562003
0.062657
0.0690328
0.0752858
0.0813846
0.0873098
0.0930532
0.0986159
0.104005
0.109225
0.114288
0.119208
0.123998
0.128677
0.133267
0.137794
0.142297
0.146825
0.151448
0.156259
0.161385
0.166994
0.173312
0.180659
0.189526
0.200738
0.215855
0.238638
0.28247
0.399547
0.00961882
0.0118115
0.0149811
0.0189846
0.0236892
0.0289701
0.0347087
0.0407916
0.0471115
0.0535686
0.0600754
0.0665621
0.0729701
0.07925
0.0853677
0.0913033
0.0970491
0.102607
0.107979
0.11317
0.118188
0.123042
0.127743
0.132302
0.136735
0.141064
0.14532
0.149555
0.153843
0.15829
0.163043
0.168292
0.174284
0.181351
0.18999
0.201025
0.216015
0.238711
0.28248
0.399543
0.014262
0.0165128
0.019701
0.0236891
0.0283567
0.0335943
0.0392984
0.0453666
0.0516977
0.0581921
0.0647578
0.0713115
0.0777781
0.0841024
0.0902497
0.0962022
0.101955
0.107508
0.112861
0.118019
0.122986
0.127767
0.132365
0.136783
0.141027
0.145111
0.149058
0.152916
0.156764
0.160726
0.16498
0.169758
0.175334
0.182059
0.190432
0.201277
0.216144
0.238772
0.282508
0.399604
0.019588
0.0218508
0.0250198
0.02897
0.0335943
0.0387979
0.0444912
0.0505841
0.0569823
0.0635852
0.0702843
0.0769633
0.0835306
0.089928
0.0961248
0.102109
0.10788
0.113435
0.118778
0.12391
0.128833
0.133545
0.138042
0.142316
0.146361
0.150172
0.153759
0.157156
0.160445
0.163771
0.167361
0.171515
0.176558
0.182859
0.190922
0.201559
0.216308
0.23889
0.28264
0.399876
0.0254118
0.0276652
0.0308003
0.0347086
0.0392983
0.0444912
0.0502152
0.0563982
0.0629596
0.0697949
0.07675
0.0836496
0.0903826
0.0968966
0.103174
0.109215
0.115021
0.120597
0.125947
0.131074
0.135976
0.140645
0.145067
0.149222
0.153084
0.156625
0.159826
0.162692
0.165287
0.167776
0.170456
0.173763
0.178102
0.183868
0.191556
0.201959
0.216591
0.23915
0.28298
0.400524
0.031577
0.0338147
0.0369166
0.0407916
0.0453666
0.0505842
0.0563982
0.0627694
0.0696489
0.0769266
0.0843751
0.0916589
0.0986566
0.105349
0.111752
0.11788
0.123751
0.129378
0.13477
0.13993
0.144855
0.149531
0.153937
0.158038
0.161784
0.165114
0.167958
0.17026
0.172022
0.173391
0.174758
0.176847
0.180203
0.185254
0.192467
0.202589
0.217092
0.239649
0.283641
0.401724
0.0379531
0.0401769
0.0432538
0.0471117
0.0516978
0.0569825
0.0629597
0.069649
0.0770724
0.085202
0.0937399
0.101701
0.109105
0.11606
0.122642
0.128905
0.134887
0.140614
0.146103
0.15136
0.156383
0.161158
0.165656
0.169832
0.173614
0.176899
0.179544
0.181371
0.182216
0.182064
0.181341
0.181435
0.18325
0.187256
0.193819
0.203575
0.217919
0.240484
0.284732
0.403643
0.0444313
0.0466467
0.0497106
0.0535689
0.0581924
0.0635855
0.0697951
0.0769268
0.0852022
0.0950938
0.107201
0.116311
0.124297
0.131619
0.138467
0.144948
0.151129
0.157055
0.162753
0.168239
0.173517
0.178578
0.183396
0.187922
0.192076
0.195725
0.198653
0.200502
0.2007
0.198495
0.193625
0.189133
0.187897
0.190166
0.195775
0.205031
0.219161
0.241736
0.28634
0.406418
0.0509236
0.0531379
0.0562007
0.0600758
0.0647583
0.0702847
0.0767504
0.0843755
0.09374
0.107201
0.461831
0.477301
0.466555
0.459421
0.454928
0.452092
0.450375
0.449454
0.449092
0.449101
0.449316
0.449565
0.449657
0.449343
0.448278
0.445896
0.441133
0.431509
0.409931
0.357864
0.19865
0.193512
0.191834
0.193303
0.198181
0.206951
0.22085
0.243443
0.288518
0.410137
0.0573637
0.0595843
0.0626574
0.0665626
0.071312
0.0769638
0.0836501
0.0916594
0.101701
0.116311
0.4773
0.551725
0.554521
0.552944
0.551656
0.550716
0.550048
0.549594
0.549299
0.549117
0.549002
0.548909
0.548778
0.548544
0.548103
0.547285
0.545757
0.542743
0.536049
0.51984
0.204895
0.197508
0.195461
0.196495
0.200878
0.209256
0.222954
0.245594
0.291271
0.414826
0.0637067
0.0659416
0.0690331
0.0729707
0.0777787
0.0835311
0.0903832
0.0986572
0.109106
0.124298
0.466555
0.554521
0.561859
0.56205
0.561959
0.56188
0.561817
0.56177
0.561738
0.561715
0.561697
0.561683
0.561667
0.561645
0.561605
0.561536
0.561413
0.56118
0.560699
0.559728
0.210846
0.201366
0.198964
0.199716
0.203764
0.211854
0.225407
0.248142
0.294572
0.420461
0.0699242
0.0721764
0.0752863
0.0792507
0.0841031
0.0899286
0.0968973
0.10535
0.11606
0.131619
0.459421
0.552944
0.56205
0.562469
0.56248
0.562475
0.562471
0.562469
0.562467
0.562465
0.562466
0.562464
0.562463
0.562462
0.56246
0.562455
0.56245
0.56244
0.562421
0.562392
0.216541
0.205159
0.202418
0.20296
0.206776
0.214667
0.228138
0.251024
0.298374
0.426975
0.0759912
0.0782604
0.0813852
0.0853684
0.0902504
0.0961255
0.103175
0.111752
0.122643
0.138467
0.454928
0.551656
0.561959
0.56248
0.562499
0.562499
0.562499
0.562499
0.562499
0.562499
0.562499
0.562499
0.562499
0.562499
0.562499
0.562499
0.562498
0.562498
0.562498
0.562497
0.222051
0.208913
0.205853
0.206226
0.209876
0.217637
0.231082
0.254171
0.302605
0.434276
0.0818913
0.0841757
0.0873107
0.0913041
0.096203
0.10211
0.109216
0.117881
0.128906
0.144948
0.452091
0.550716
0.56188
0.562475
0.562499
0.5625
0.5625
0.5625
0.5625
0.5625
0.5625
0.5625
0.5625
0.5625
0.5625
0.5625
0.5625
0.5625
0.5625
0.5625
0.227417
0.212644
0.209284
0.209513
0.21304
0.22072
0.234182
0.257518
0.307201
0.442247
0.0876173
0.0899144
0.0930542
0.0970501
0.101956
0.107881
0.115022
0.123752
0.134888
0.151129
0.450375
0.550048
0.561817
0.562471
0.562499
0.5625
0.5625
0.5625
0.5625
0.5625
0.5625
0.5625
0.5625
0.5625
0.5625
0.5625
0.5625
0.5625
0.5625
0.5625
0.232666
0.216365
0.212718
0.212818
0.216249
0.223882
0.237393
0.261008
0.312101
0.450745
0.0931708
0.0954776
0.0986171
0.102608
0.107509
0.113436
0.120598
0.129379
0.140615
0.157055
0.449454
0.549594
0.56177
0.562469
0.562499
0.5625
0.5625
0.5625
0.5625
0.5625
0.5625
0.5625
0.5625
0.5625
0.5625
0.5625
0.5625
0.5625
0.5625
0.5625
0.237824
0.22009
0.216165
0.216142
0.219494
0.2271
0.240676
0.264587
0.317256
0.459592
0.0985616
0.100874
0.104006
0.10798
0.112862
0.118779
0.125948
0.134771
0.146104
0.162753
0.449092
0.549298
0.561738
0.562467
0.562499
0.5625
0.5625
0.5625
0.5625
0.5625
0.5625
0.5625
0.5625
0.5625
0.5625
0.5625
0.5625
0.5625
0.5625
0.5625
0.242915
0.223836
0.219632
0.21949
0.222768
0.230353
0.243997
0.268205
0.32262
0.46856
0.1038
0.106113
0.109226
0.113171
0.11802
0.123911
0.131076
0.139931
0.151361
0.16824
0.449102
0.549117
0.561715
0.562465
0.562499
0.5625
0.5625
0.5625
0.5625
0.5625
0.5625
0.5625
0.5625
0.5625
0.5625
0.5625
0.5625
0.5625
0.5625
0.5625
0.247964
0.227623
0.223134
0.222865
0.226066
0.233624
0.247323
0.271812
0.328148
0.477375
0.108901
0.111206
0.11429
0.118189
0.122987
0.128834
0.135977
0.144856
0.156384
0.173518
0.449316
0.549002
0.561697
0.562466
0.562499
0.5625
0.5625
0.5625
0.5625
0.5625
0.5625
0.5625
0.5625
0.5625
0.5625
0.5625
0.5625
0.5625
0.5625
0.5625
0.252994
0.23148
0.226686
0.226278
0.229387
0.236898
0.250619
0.275358
0.333791
0.485725
0.113881
0.11617
0.119209
0.123043
0.127768
0.133546
0.140646
0.149532
0.161159
0.178579
0.449565
0.548909
0.561683
0.562464
0.562499
0.5625
0.5625
0.5625
0.5625
0.5625
0.5625
0.5625
0.5625
0.5625
0.5625
0.5625
0.5625
0.5625
0.5625
0.5625
0.25803
0.235442
0.230311
0.229739
0.23273
0.240157
0.25385
0.278784
0.339478
0.493289
0.118761
0.121023
0.123999
0.127744
0.132366
0.138043
0.145068
0.153938
0.165658
0.183397
0.449657
0.548778
0.561667
0.562463
0.562499
0.5625
0.5625
0.5625
0.5625
0.5625
0.5625
0.5625
0.5625
0.5625
0.5625
0.5625
0.5625
0.5625
0.5625
0.5625
0.263102
0.239557
0.23404
0.233266
0.236096
0.243382
0.256971
0.282026
0.345102
0.499768
0.123568
0.125787
0.128678
0.132304
0.136784
0.142317
0.149223
0.158039
0.169834
0.187923
0.449343
0.548544
0.561645
0.562462
0.562499
0.5625
0.5625
0.5625
0.5625
0.5625
0.5625
0.5625
0.5625
0.5625
0.5625
0.5625
0.5625
0.5625
0.5625
0.5625
0.268244
0.243891
0.23792
0.236885
0.239491
0.246554
0.259934
0.285004
0.350491
0.504911
0.128328
0.130489
0.133268
0.136737
0.141029
0.146362
0.153086
0.161786
0.173616
0.192077
0.448278
0.548103
0.561605
0.56246
0.562499
0.5625
0.5625
0.5625
0.5625
0.5625
0.5625
0.5625
0.5625
0.5625
0.5625
0.5625
0.5625
0.5625
0.5625
0.5625
0.273501
0.24854
0.242019
0.240636
0.242924
0.249652
0.262688
0.28763
0.355379
0.508515
0.133077
0.13516
0.137796
0.141065
0.145112
0.150173
0.156627
0.165116
0.1769
0.195726
0.445896
0.547285
0.561536
0.562455
0.562499
0.5625
0.5625
0.5625
0.5625
0.5625
0.5625
0.5625
0.5625
0.5625
0.5625
0.5625
0.5625
0.5625
0.5625
0.5625
0.278934
0.253642
0.246445
0.24458
0.246419
0.252664
0.265183
0.289807
0.359399
0.510401
0.137856
0.139838
0.142299
0.145322
0.14906
0.15376
0.159827
0.16796
0.179545
0.198654
0.441133
0.545757
0.561413
0.56245
0.562498
0.5625
0.5625
0.5625
0.5625
0.5625
0.5625
0.5625
0.5625
0.5625
0.5625
0.5625
0.5625
0.5625
0.5625
0.5625
0.284632
0.259412
0.25137
0.248823
0.250027
0.255594
0.267385
0.291438
0.362103
0.510382
0.142717
0.144576
0.146827
0.149557
0.152917
0.157158
0.162693
0.170261
0.181373
0.200503
0.431509
0.542742
0.56118
0.56244
0.562498
0.5625
0.5625
0.5625
0.5625
0.5625
0.5625
0.5625
0.5625
0.5625
0.5625
0.5625
0.5625
0.5625
0.5625
0.5625
0.290729
0.266191
0.257087
0.253557
0.253855
0.258491
0.269295
0.292454
0.363004
0.508236
0.147725
0.149438
0.151449
0.153844
0.156765
0.160447
0.165289
0.172024
0.182217
0.200701
0.409931
0.536049
0.560699
0.562421
0.562498
0.5625
0.5625
0.5625
0.5625
0.5625
0.5625
0.5625
0.5625
0.5625
0.5625
0.5625
0.5625
0.5625
0.5625
0.5625
0.297439
0.274574
0.264122
0.259142
0.258127
0.261486
0.270985
0.292847
0.361712
0.5037
0.152963
0.15451
0.156261
0.158291
0.160727
0.163773
0.167777
0.173393
0.182066
0.198496
0.357865
0.51984
0.559728
0.562392
0.562497
0.5625
0.5625
0.5625
0.5625
0.5625
0.5625
0.5625
0.5625
0.5625
0.5625
0.5625
0.5625
0.5625
0.5625
0.5625
0.305148
0.28559
0.273423
0.26626
0.263293
0.264874
0.272652
0.292725
0.358163
0.496388
0.158542
0.159907
0.161387
0.163044
0.164982
0.167363
0.170457
0.174759
0.181343
0.193626
0.198651
0.204896
0.210847
0.216542
0.222052
0.227418
0.232667
0.237825
0.242916
0.247964
0.252994
0.258031
0.263103
0.268244
0.273501
0.278934
0.284632
0.290729
0.297439
0.305147
0.309699
0.298789
0.285817
0.275887
0.270136
0.269217
0.274692
0.292381
0.35289
0.486246
0.164607
0.165785
0.166996
0.168294
0.169759
0.171517
0.173765
0.176848
0.181437
0.189134
0.193513
0.197509
0.201367
0.20516
0.208914
0.212646
0.216367
0.220091
0.223837
0.227625
0.231481
0.235443
0.239558
0.243892
0.248541
0.253643
0.259412
0.266192
0.274574
0.28559
0.298789
0.30217
0.296036
0.286735
0.278919
0.275167
0.277737
0.292356
0.346636
0.473566
0.171367
0.172355
0.173314
0.174286
0.175336
0.176559
0.178103
0.180204
0.183251
0.187899
0.191835
0.195462
0.198965
0.202419
0.205855
0.209285
0.21272
0.216166
0.219634
0.223135
0.226687
0.230312
0.234041
0.237921
0.24202
0.246446
0.25137
0.257088
0.264122
0.273423
0.285817
0.296036
0.298959
0.295042
0.288257
0.282801
0.282433
0.293429
0.340496
0.459108
0.179124
0.17993
0.180661
0.181353
0.18206
0.182861
0.183869
0.185255
0.187257
0.190168
0.193304
0.196497
0.199717
0.202961
0.206228
0.209514
0.212819
0.216144
0.219491
0.222867
0.226279
0.22974
0.233267
0.236887
0.240637
0.24458
0.248824
0.253558
0.259142
0.26626
0.275887
0.286735
0.295042
0.297873
0.295528
0.291077
0.289
0.296451
0.335813
0.444193
0.188359
0.188994
0.189528
0.189992
0.190434
0.190923
0.191558
0.192469
0.19382
0.195776
0.198183
0.20088
0.203765
0.206777
0.209878
0.213041
0.216251
0.219496
0.222769
0.226068
0.229388
0.232731
0.236097
0.239492
0.242925
0.24642
0.250028
0.253856
0.258128
0.263293
0.270136
0.278919
0.288257
0.295528
0.298729
0.298136
0.296859
0.302
0.333976
0.430584
0.199889
0.20037
0.20074
0.201027
0.201278
0.20156
0.201961
0.202591
0.203577
0.205032
0.206953
0.209258
0.211855
0.214669
0.217639
0.220722
0.223884
0.227101
0.230354
0.233626
0.236899
0.240158
0.243383
0.246555
0.249653
0.252665
0.255595
0.258491
0.261487
0.264875
0.269217
0.275167
0.282801
0.291077
0.298135
0.302494
0.304724
0.309991
0.336032
0.420128
0.215267
0.215617
0.215856
0.216016
0.216145
0.216309
0.216592
0.217094
0.217921
0.219163
0.220852
0.222955
0.225409
0.22814
0.231083
0.234183
0.237394
0.240677
0.243998
0.247324
0.250621
0.253851
0.256972
0.259935
0.262689
0.265184
0.267386
0.269296
0.270986
0.272652
0.274693
0.277737
0.282433
0.289
0.296859
0.304724
0.311586
0.319609
0.342196
0.414093
0.238255
0.238499
0.238639
0.238713
0.238774
0.238891
0.239151
0.23965
0.240485
0.241737
0.243444
0.245595
0.248144
0.251025
0.254172
0.25752
0.261009
0.264588
0.268206
0.271813
0.275359
0.278785
0.282027
0.285005
0.287631
0.289808
0.291439
0.292455
0.292848
0.292726
0.292382
0.292356
0.29343
0.296451
0.302001
0.309991
0.319609
0.330949
0.352126
0.41261
0.28224
0.282408
0.282471
0.282482
0.282509
0.282641
0.282981
0.283642
0.284733
0.286341
0.288519
0.291272
0.294573
0.298375
0.302607
0.307202
0.312102
0.317257
0.322621
0.328149
0.333791
0.339479
0.345103
0.350491
0.355379
0.3594
0.362103
0.363004
0.361712
0.358163
0.352891
0.346637
0.340496
0.335814
0.333976
0.336033
0.342196
0.352126
0.369596
0.416734
0.399303
0.399498
0.399547
0.399543
0.399605
0.399877
0.400525
0.401724
0.403643
0.406418
0.410137
0.414827
0.420461
0.426975
0.434276
0.442247
0.450746
0.459592
0.468561
0.477375
0.485725
0.493289
0.499768
0.504911
0.508515
0.510401
0.510382
0.508236
0.5037
0.496388
0.486246
0.473567
0.459109
0.444194
0.430585
0.420128
0.414093
0.41261
0.416734
0.440169
9.92991e-05
0.000485665
0.00185373
0.00461512
0.00858777
0.0134522
0.0189436
0.024854
0.0310195
0.0373101
0.0436244
0.0498864
0.0560435
0.0620641
0.0679338
0.0736421
0.0791832
0.0845576
0.0897718
0.0948379
0.0997689
0.104581
0.109295
0.113932
0.118521
0.123092
0.127685
0.132348
0.137141
0.14214
0.147444
0.153183
0.159536
0.16676
0.175246
0.185653
0.199305
0.219751
0.259584
0.368977
0.000485555
0.00132141
0.00326237
0.00641662
0.0105905
0.0155463
0.0210744
0.0269971
0.033166
0.0394592
0.0457783
0.0520488
0.0582185
0.0642566
0.0701458
0.0758719
0.0814276
0.0868124
0.0920322
0.0970977
0.10202
0.106814
0.111497
0.11609
0.120616
0.125106
0.129595
0.134132
0.138776
0.143608
0.14873
0.154282
0.160449
0.167494
0.175813
0.186068
0.199586
0.219915
0.259658
0.369044
0.00185317
0.0032623
0.00572275
0.00919187
0.0135182
0.0185326
0.0240725
0.0299886
0.0361484
0.0424369
0.048758
0.0550367
0.0612201
0.0672767
0.073183
0.0789213
0.084483
0.0898666
0.0950776
0.100124
0.105014
0.10976
0.114377
0.118881
0.123291
0.127636
0.131948
0.136275
0.140682
0.145257
0.150114
0.155405
0.161328
0.168153
0.176283
0.18638
0.199769
0.21999
0.259644
0.368992
0.00461482
0.00641667
0.00919191
0.0128474
0.0172607
0.022301