/*--------------------------------*- C++ -*----------------------------------*\
| =========                 |                                                 |
| \\      /  F ield         | OpenFOAM: The Open Source CFD Toolbox           |
|  \\    /   O peration     | Version:  2.1.0                                 |
|   \\  /    A nd           | Web:      www.OpenFOAM.org                      |
|    \\/     M anipulation  |                                                 |
\*---------------------------------------------------------------------------*/
FoamFile
{
    version     2.0;
    format      ascii;
    class       volScalarField;
    location    "40150";
    object      kr_w;
}
// * * * * * * * * * * * * * * * * * * * * * * * * * * * * * * * * * * * * * //

dimensions      [0 0 0 0 0 0 0];

internalField   nonuniform List<scalar> 
8000
(
0.457197
0.437598
0.41315
0.387322
0.362094
0.338367
0.316482
0.296508
0.278378
0.261966
0.247118
0.233665
0.221456
0.210359
0.200255
0.19103
0.182581
0.174814
0.167648
0.161007
0.154822
0.14903
0.143575
0.138402
0.133463
0.128706
0.124083
0.119539
0.115016
0.110447
0.105753
0.100835
0.0955668
0.0897659
0.0831453
0.0751909
0.0648808
0.0502152
0.0287358
0.00685075
0.437599
0.419885
0.397877
0.374454
0.351305
0.329274
0.308732
0.289806
0.272491
0.256714
0.242359
0.229295
0.217401
0.206567
0.196686
0.187655
0.179377
0.171763
0.164739
0.15823
0.152172
0.146504
0.141174
0.136131
0.131328
0.126718
0.122253
0.117879
0.113535
0.109153
0.104648
0.0999158
0.0948236
0.0891849
0.0827091
0.0748796
0.0646704
0.050072
0.02862
0.00679631
0.413152
0.397877
0.37882
0.35826
0.337595
0.317606
0.298699
0.281062
0.264756
0.249766
0.236024
0.223451
0.211964
0.201476
0.191894
0.183127
0.175086
0.167689
0.160867
0.154551
0.148678
0.143195
0.138053
0.133206
0.128612
0.124226
0.120001
0.115883
0.111807
0.107697
0.103458
0.0989748
0.0941065
0.0886609
0.082346
0.0746454
0.0645327
0.049992
0.0285543
0.0067635
0.387324
0.374455
0.35826
0.340485
0.322284
0.304366
0.287147
0.270857
0.255614
0.241454
0.22837
0.216336
0.205307
0.195218
0.18599
0.177539
0.169785
0.162657
0.156084
0.150005
0.144364
0.139112
0.134207
0.12961
0.125282
0.121185
0.117273
0.113492
0.109771
0.106022
0.102132
0.0979713
0.0933821
0.0881666
0.0820322
0.0744663
0.064446
0.0499524
0.0285159
0.00674052
0.362095
0.351305
0.337595
0.322284
0.306314
0.29031
0.274674
0.25966
0.245423
0.232052
0.219604
0.208109
0.197553
0.187889
0.179046
0.170947
0.163519
0.156693
0.150404
0.144595
0.139217
0.134227
0.129592
0.125278
0.121258
0.117499
0.113963
0.110595
0.10732
0.104032
0.100595
0.0968437
0.0926019
0.0876622
0.0817335
0.0743109
0.0643793
0.0499215
0.0284742
0.00671265
0.338368
0.329274
0.317606
0.304366
0.29031
0.275973
0.261727
0.24783
0.234459
0.221761
0.209868
0.198864
0.188765
0.179528
0.171085
0.16336
0.156283
0.149783
0.143799
0.138278
0.133177
0.128464
0.124111
0.120097
0.116405
0.113015
0.1099
0.107015
0.104282
0.101577
0.0987212
0.095498
0.0916941
0.0870905
0.0814015
0.0741353
0.0642905
0.0498571
0.0283905
0.00666209
0.316483
0.308732
0.298699
0.287147
0.274673
0.261728
0.248635
0.235632
0.222922
0.210712
0.199214
0.188604
0.178913
0.170091
0.162053
0.154719
0.148006
0.141843
0.136172
0.130944
0.126123
0.121682
0.117604
0.113879
0.110507
0.107486
0.104813
0.102464
0.100372
0.0984003
0.0963126
0.0937865
0.0905499
0.0863687
0.0809687
0.0738813
0.0641261
0.0497085
0.0282194
0.00656898
0.296508
0.289806
0.281062
0.270857
0.25966
0.24783
0.235632
0.223276
0.210964
0.198937
0.187536
0.177154
0.167805
0.15938
0.151755
0.14482
0.13848
0.13266
0.127301
0.12236
0.117804
0.113613
0.109779
0.106304
0.103205
0.100509
0.0982487
0.0964472
0.0950852
0.0940406
0.0930113
0.0914569
0.0889977
0.0853762
0.0803448
0.0734755
0.0638231
0.0494183
0.0279125
0.00641345
0.278378
0.272491
0.264756
0.255613
0.245423
0.234459
0.222922
0.210964
0.198706
0.186321
0.174312
0.163912
0.154849
0.146826
0.139632
0.133112
0.127156
0.121683
0.116634
0.111965
0.107648
0.103667
0.100019
0.0967171
0.0937941
0.091305
0.0893337
0.0879896
0.0873778
0.0875009
0.0880532
0.0880231
0.0867535
0.0839429
0.0794172
0.0728354
0.0633146
0.0489293
0.0274241
0.00617903
0.261967
0.256714
0.249765
0.241454
0.232051
0.221761
0.210712
0.198937
0.186321
0.172488
0.157106
0.146501
0.137801
0.130276
0.123589
0.117542
0.112009
0.106906
0.10217
0.0977578
0.0936418
0.0898062
0.0862491
0.0829854
0.0800528
0.0775228
0.075522
0.0742704
0.0741373
0.0756395
0.0790339
0.0823082
0.0833287
0.0818547
0.0780731
0.0718878
0.0625451
0.0481954
0.0267194
0.00585667
0.247118
0.24236
0.236024
0.22837
0.219603
0.209867
0.199214
0.187536
0.174312
0.157106
0.00696995
0.00537883
0.00618161
0.00669392
0.00697847
0.00711201
0.00713958
0.00709193
0.00699131
0.00685671
0.00670396
0.00654888
0.00640876
0.00630397
0.00626321
0.00633447
0.0066133
0.00733858
0.00930407
0.0158221
0.0757736
0.079248
0.0805255
0.0796471
0.0764359
0.0706415
0.0614969
0.0471953
0.0257832
0.00544793
0.233666
0.229295
0.22345
0.216336
0.208108
0.198864
0.188603
0.177153
0.163912
0.1465
0.00537889
0.00045415
0.000323393
0.000379588
0.000421026
0.000446376
0.000459544
0.000463469
0.00046061
0.000453311
0.000443327
0.000432716
0.000423395
0.000417905
0.00041928
0.000432643
0.000468894
0.000552813
0.000758554
0.00131497
0.0722034
0.0765887
0.0780185
0.0774466
0.0746261
0.0691563
0.0601934
0.0459375
0.0246227
0.00496579
0.221456
0.217401
0.211963
0.205307
0.197553
0.188764
0.178913
0.167805
0.154848
0.1378
0.00618181
0.000323401
2.223e-05
1.49977e-05
1.74935e-05
1.94312e-05
2.04423e-05
2.10977e-05
2.12524e-05
2.10782e-05
2.07435e-05
2.02289e-05
1.98239e-05
1.95484e-05
1.98506e-05
2.06578e-05
2.27482e-05
2.74148e-05
3.76638e-05
5.90206e-05
0.0688848
0.0740812
0.0756497
0.0752683
0.0727178
0.067497
0.0586785
0.0444518
0.0232639
0.00443208
0.21036
0.206567
0.201475
0.195218
0.187888
0.179527
0.17009
0.159379
0.146826
0.130276
0.00669395
0.000379591
1.49979e-05
8.12379e-07
6.11265e-07
6.82395e-07
7.32089e-07
7.73895e-07
7.99191e-07
8.1219e-07
8.18561e-07
7.09909e-07
7.05188e-07
7.04456e-07
7.25479e-07
7.57185e-07
8.2801e-07
9.75756e-07
1.26473e-06
1.94582e-06
0.0657657
0.0716568
0.0733552
0.0731108
0.0707536
0.0657167
0.0569994
0.0427776
0.0217425
0.00387322
0.200255
0.196686
0.191894
0.185989
0.179045
0.171084
0.162053
0.151754
0.139631
0.123588
0.00697849
0.000421029
1.74937e-05
6.11272e-07
2.51107e-08
1.50602e-08
1.67474e-08
1.84891e-08
1.99142e-08
2.10658e-08
2.20438e-08
1.74691e-08
1.77707e-08
1.81736e-08
1.90309e-08
1.99589e-08
2.15543e-08
2.44694e-08
2.94702e-08
4.6481e-08
0.0628092
0.0692909
0.0711085
0.0709723
0.0687592
0.063855
0.0551983
0.0409548
0.0200944
0.00331597
0.19103
0.187654
0.183127
0.177539
0.170946
0.163359
0.154718
0.144819
0.133112
0.117541
0.00711203
0.000446379
1.94314e-05
6.82402e-07
1.50605e-08
4.33253e-10
2.6034e-10
2.9985e-10
3.38663e-10
3.74355e-10
4.07776e-10
3.07671e-10
3.21453e-10
3.37151e-10
3.58804e-10
3.78328e-10
4.03712e-10
4.42073e-10
4.98303e-10
8.09292e-10
0.0599927
0.0669713
0.0688969
0.0688518
0.0667505
0.061941
0.05331
0.0390193
0.0183569
0.00278419
0.18258
0.179376
0.175085
0.169785
0.163518
0.156282
0.148005
0.138479
0.127156
0.112009
0.0071396
0.000459546
2.04425e-05
7.32096e-07
1.67476e-08
2.60346e-10
5.83594e-12
3.59834e-12
4.23158e-12
4.88334e-12
5.52874e-12
4.07489e-12
4.36959e-12
4.69207e-12
5.06562e-12
5.36784e-12
5.67108e-12
6.02642e-12
6.44056e-12
1.07313e-11
0.0572978
0.0646891
0.0667129
0.0667483
0.0647377
0.0599955
0.051362
0.0370017
0.0165682
0.00229671
0.174813
0.171762
0.167689
0.162656
0.156692
0.149782
0.141843
0.132659
0.121683
0.106905
0.00709195
0.000463471
2.10978e-05
7.73903e-07
1.84894e-08
2.99856e-10
3.5984e-12
6.71515e-14
4.209e-14
5.01073e-14
5.87278e-14
4.29885e-14
4.71798e-14
5.17806e-14
5.6537e-14
6.02583e-14
6.30841e-14
6.54592e-14
6.71769e-14
1.14128e-13
0.0547078
0.0624357
0.0645503
0.0646602
0.0627269
0.0580334
0.0493764
0.0349273
0.0147678
0.00186621
0.167647
0.164738
0.160866
0.156083
0.150403
0.143798
0.136171
0.127301
0.116633
0.102169
0.00699133
0.000460612
2.12525e-05
7.99198e-07
1.99145e-08
3.3867e-10
4.2316e-12
4.209e-14
1.20656e-16
1.20656e-16
1.20656e-16
1.0478e-16
1.20656e-16
1.20656e-16
1.20656e-16
1.20656e-16
1.20656e-16
1.20656e-16
1.20656e-16
1.20656e-16
0.0522068
0.0602026
0.0624031
0.062585
0.060722
0.0560656
0.0473708
0.0328178
0.0129992
0.00149923
0.161007
0.158229
0.15455
0.150004
0.144594
0.138277
0.130943
0.122359
0.111964
0.0977572
0.00685673
0.000453313
2.10783e-05
8.12196e-07
2.10661e-08
3.74362e-10
4.8836e-12
5.01073e-14
1.20656e-16
0
0
0
0
0
0
0
0
0
0
0
0.0497799
0.0579795
0.060265
0.0605195
0.0587249
0.0541008
0.0453611
0.0306933
0.0113099
0.00119684
0.154822
0.152171
0.148677
0.144363
0.139216
0.133177
0.126122
0.117803
0.107647
0.0936413
0.00670397
0.00044322
2.07382e-05
8.18433e-07
2.20419e-08
4.07758e-10
5.52868e-12
5.87278e-14
1.20656e-16
0
0
0
0
0
0
0
0
0
0
0
0.0474123
0.0557543
0.0581274
0.0584587
0.0567357
0.0521467
0.0433624
0.0285758
0.00974951
0.00095587
0.14903
0.146503
0.143194
0.139112
0.134227
0.128463
0.121681
0.113612
0.103666
0.0898057
0.00654889
0.000432715
2.02288e-05
7.0991e-07
1.74692e-08
3.07675e-10
4.07492e-12
4.29885e-14
1.0478e-16
0
0
0
0
0
0
0
0
0
0
0
0.0450889
0.0535122
0.0559794
0.0563954
0.0547535
0.0502108
0.0413919
0.0264934
0.00836423
0.000770378
0.143575
0.141173
0.138052
0.134207
0.129591
0.12411
0.117603
0.109778
0.100018
0.0862486
0.00640878
0.000423396
1.9824e-05
7.05194e-07
1.77708e-08
3.21458e-10
4.3696e-12
4.71798e-14
1.20656e-16
0
0
0
0
0
0
0
0
0
0
0
0.0427932
0.0512335
0.0538055
0.0543196
0.0527757
0.0483019
0.0394703
0.0244846
0.00718994
0.00063312
0.138402
0.13613
0.133205
0.129609
0.125278
0.120097
0.113879
0.106304
0.0967165
0.0829851
0.00630398
0.000417906
1.95485e-05
7.0446e-07
1.81737e-08
3.37156e-10
4.69223e-12
5.17806e-14
1.20656e-16
0
0
0
0
0
0
0
0
0
0
0
0.040506
0.0488926
0.0515845
0.0522171
0.0507985
0.0464301
0.037624
0.0226027
0.00624767
0.000536944
0.133462
0.131327
0.128611
0.125281
0.121257
0.116404
0.110506
0.103205
0.0937935
0.0800525
0.00626322
0.000419282
1.98507e-05
7.25483e-07
1.90311e-08
3.58809e-10
5.06568e-12
5.6537e-14
1.20656e-16
0
0
0
0
0
0
0
0
0
0
0
0.0382028
0.0464531
0.0492851
0.050067
0.0488149
0.0446069
0.0358865
0.0209157
0.00554393
0.000475962
0.128706
0.126717
0.124225
0.121184
0.117499
0.113014
0.107485
0.100509
0.0913044
0.0775225
0.00633449
0.000432644
2.06579e-05
7.57189e-07
1.99591e-08
3.78332e-10
5.36798e-12
6.02583e-14
1.20656e-16
0
0
0
0
0
0
0
0
0
0
0
0.0358498
0.0438629
0.0468604
0.0478372
0.0468117
0.0428427
0.0342978
0.0195008
0.00507569
0.000446472
0.124083
0.122252
0.12
0.117272
0.113962
0.109899
0.104812
0.0982479
0.0893331
0.0755217
0.00661331
0.000468895
2.27483e-05
8.28013e-07
2.15545e-08
4.03716e-10
5.67111e-12
6.30841e-14
1.20656e-16
0
0
0
0
0
0
0
0
0
0
0
0.0333956
0.0410422
0.0442367
0.0454765
0.0447636
0.0411418
0.0328999
0.0184337
0.00483738
0.000447683
0.119539
0.117877
0.115882
0.113491
0.110594
0.107014
0.102463
0.0964464
0.087989
0.0742702
0.00733858
0.000552814
2.74149e-05
9.7576e-07
2.44695e-08
4.42077e-10
6.0265e-12
6.54592e-14
1.20656e-16
0
0
0
0
0
0
0
0
0
0
0
0.0307537
0.037861
0.0412929
0.042897
0.0426191
0.0394907
0.0317257
0.0177735
0.00482648
0.000482296
0.115016
0.113534
0.111806
0.10977
0.107319
0.104281
0.100372
0.0950844
0.0873771
0.074137
0.00930407
0.000758554
3.76639e-05
1.26473e-06
2.94704e-08
4.98307e-10
6.44056e-12
6.71769e-14
1.20656e-16
0
0
0
0
0
0
0
0
0
0
0
0.0277573
0.0340904
0.0378183
0.0399414
0.0402747
0.0378359
0.0307777
0.0175487
0.00504505
0.000556798
0.110446
0.109152
0.107696
0.106021
0.104032
0.101576
0.0983995
0.0940398
0.0875003
0.0756391
0.0158223
0.00131498
5.90212e-05
1.94584e-06
4.64814e-08
8.09299e-10
1.07314e-11
1.14128e-13
1.20656e-16
0
0
0
0
0
0
0
0
0
0
0
0.0240104
0.0292912
0.0334285
0.0363176
0.0375257
0.0360454
0.0299948
0.0177408
0.00550421
0.000680895
0.105752
0.104647
0.103457
0.102132
0.100594
0.0987204
0.0963118
0.0930105
0.0880525
0.0790335
0.0757732
0.072203
0.0688845
0.0657655
0.0628089
0.0599925
0.0572976
0.0547076
0.0522067
0.0497799
0.0474123
0.045089
0.0427933
0.0405062
0.038203
0.0358499
0.0333958
0.0307539
0.0277576
0.0240107
0.0212503
0.0237516
0.0278701
0.0316497
0.0340338
0.0338619
0.0292086
0.0182619
0.00625557
0.000879459
0.100835
0.0999149
0.0989739
0.0979705
0.0968429
0.0954973
0.0937857
0.0914561
0.0880224
0.0823077
0.0792475
0.0765882
0.0740807
0.0716563
0.0692904
0.0669709
0.0646887
0.0624354
0.0602022
0.0579792
0.0557541
0.053512
0.0512334
0.0488925
0.0464531
0.043863
0.0410423
0.0378611
0.0340906
0.0292914
0.0237518
0.0217108
0.023294
0.0266001
0.0297541
0.031009
0.0281362
0.0189299
0.00729607
0.00118778
0.0955664
0.0948227
0.0941056
0.0933812
0.0926011
0.0916933
0.0905492
0.0889969
0.0867528
0.0833281
0.0805249
0.0780179
0.0756491
0.0733547
0.071108
0.0688964
0.0667124
0.0645498
0.0624028
0.0602646
0.0581271
0.0559791
0.0538053
0.0515844
0.049285
0.0468603
0.0442367
0.041293
0.0378184
0.0334287
0.0278704
0.0232942
0.0216135
0.0227813
0.0254201
0.0275405
0.0265114
0.019473
0.0085763
0.00164444
0.0897656
0.089184
0.0886601
0.0881658
0.0876614
0.0870897
0.0863679
0.0853755
0.0839421
0.0818541
0.0796465
0.077446
0.0752677
0.0731102
0.0709717
0.0688513
0.0667478
0.0646598
0.0625846
0.0605192
0.0584584
0.0563951
0.0543194
0.052217
0.0500668
0.0478371
0.0454765
0.0428971
0.0399415
0.0363178
0.0316499
0.0266003
0.0227814
0.0213535
0.0222265
0.0240665
0.0243353
0.0196189
0.00997951
0.00228871
0.0831449
0.0827083
0.0823452
0.0820314
0.0817328
0.0814007
0.080968
0.0803441
0.0794165
0.0780725
0.0764352
0.0746255
0.0727172
0.070753
0.0687586
0.06675
0.0647372
0.0627265
0.0607216
0.0587245
0.0567354
0.0547532
0.0527755
0.0507983
0.0488147
0.0468116
0.0447635
0.0426191
0.0402747
0.0375257
0.034034
0.0297543
0.0254203
0.0222267
0.0209935
0.0214989
0.0220305
0.0192617
0.0113405
0.00315133
0.0751905
0.0748788
0.0746447
0.0744656
0.0743103
0.0741347
0.0738806
0.0734749
0.0728348
0.0718872
0.0706409
0.0691557
0.0674964
0.0657161
0.0638545
0.0619405
0.0599951
0.058033
0.0560653
0.0541005
0.0521464
0.0502106
0.0483017
0.04643
0.0446067
0.0428426
0.0411417
0.0394907
0.0378359
0.0360455
0.0338619
0.0310091
0.0275407
0.0240667
0.021499
0.0204142
0.0202555
0.0185885
0.0125194
0.0042486
0.0648806
0.0646697
0.0645321
0.0644454
0.0643788
0.0642899
0.0641256
0.0638225
0.0633141
0.0625446
0.0614964
0.060193
0.058678
0.0569989
0.0551979
0.0533096
0.0513617
0.0493761
0.0473706
0.0453609
0.0433623
0.0413918
0.0394702
0.037624
0.0358865
0.0342978
0.0328999
0.0317257
0.0307777
0.0299949
0.0292086
0.0281363
0.0265116
0.0243354
0.0220306
0.0202556
0.0192734
0.0179232
0.0134643
0.00558158
0.050215
0.0500715
0.0499915
0.049952
0.049921
0.0498567
0.0497081
0.0494179
0.0489289
0.048195
0.0471949
0.0459371
0.0444515
0.0427773
0.0409545
0.0390191
0.0370015
0.0349272
0.0328177
0.0306932
0.0285757
0.0264933
0.0244846
0.0226027
0.0209157
0.0195008
0.0184337
0.0177735
0.0175487
0.0177408
0.018262
0.0189299
0.0194731
0.019619
0.0192618
0.0185886
0.0179232
0.0170037
0.0140131
0.0070868
0.0287357
0.0286198
0.0285541
0.0285157
0.028474
0.0283902
0.0282192
0.0279123
0.0274239
0.0267192
0.025783
0.0246225
0.0232637
0.0217423
0.0200943
0.0183569
0.0165681
0.0147677
0.0129991
0.0113099
0.00974949
0.00836421
0.00718992
0.00624765
0.00554391
0.00507567
0.00483736
0.00482647
0.00504504
0.00550421
0.00625557
0.00729608
0.00857632
0.00997955
0.0113406
0.0125195
0.0134644
0.0140131
0.0131009
0.00828871
0.00685071
0.00679626
0.00676344
0.00674046
0.00671257
0.006662
0.00656889
0.00641337
0.00617897
0.00585662
0.00544789
0.00496577
0.00443206
0.00387321
0.00331596
0.00278419
0.00229671
0.00186621
0.00149923
0.00119684
0.00095587
0.000770377
0.000633118
0.000536942
0.00047596
0.000446471
0.000447682
0.000482294
0.000556796
0.000680892
0.000879456
0.00118777
0.00164444
0.00228871
0.00315134
0.00424861
0.0055816
0.00708683
0.00828872
0.00720889
0.535607
0.516665
0.487564
0.453827
0.420268
0.389116
0.361035
0.336028
0.313855
0.29421
0.276788
0.261296
0.247467
0.235058
0.223864
0.213721
0.204486
0.196038
0.188267
0.181083
0.174408
0.168171
0.162307
0.156759
0.15147
0.146387
0.141454
0.136616
0.13181
0.126966
0.122003
0.116824
0.111303
0.105274
0.098496
0.090601
0.0809665
0.0682731
0.048811
0.0177259
0.516668
0.496303
0.468178
0.437057
0.406322
0.377587
0.351415
0.327875
0.306821
0.288036
0.271279
0.256307
0.242887
0.230805
0.219882
0.209969
0.200934
0.192663
0.185053
0.17802
0.171488
0.165392
0.15967
0.154269
0.149134
0.144215
0.13946
0.134812
0.130206
0.12557
0.120818
0.115844
0.110517
0.104666
0.0980454
0.0902842
0.0807583
0.0681486
0.0487472
0.0176914
0.487567
0.468177
0.44301
0.415673
0.388519
0.362772
0.338962
0.317247
0.297597
0.279894
0.263978
0.249668
0.236775
0.225123
0.214565
0.204967
0.196211
0.188189
0.180809
0.173992
0.167671
0.161782
0.156271
0.151089
0.146186
0.141515
0.137026
0.132659
0.128347
0.124009
0.119546
0.114843
0.10976
0.104117
0.0976681
0.0900422
0.0806165
0.0680771
0.0487232
0.0176827
0.453828
0.437057
0.415673
0.392344
0.368819
0.346109
0.324735
0.304933
0.286772
0.27023
0.255225
0.241639
0.229334
0.218177
0.208046
0.198825
0.190406
0.182688
0.175591
0.169044
0.162983
0.157354
0.152108
0.147202
0.142594
0.138241
0.134094
0.130095
0.126169
0.122222
0.118137
0.113781
0.108996
0.103599
0.0973413
0.0898543
0.0805217
0.0680394
0.0487192
0.0176834
0.420269
0.406322
0.38852
0.36882
0.34858
0.328659
0.309561
0.291573
0.274838
0.259415
0.245295
0.232424
0.220719
0.210087
0.200421
0.191617
0.183573
0.1762
0.169425
0.163183
0.157417
0.152082
0.147136
0.142545
0.138277
0.134295
0.130558
0.127007
0.123562
0.120111
0.116511
0.112592
0.108178
0.103073
0.0970306
0.0896898
0.0804453
0.0680085
0.0487088
0.0176726
0.389117
0.377587
0.362772
0.346109
0.328659
0.311144
0.29404
0.27765
0.262169
0.24772
0.234369
0.222145
0.211018
0.200912
0.191729
0.183363
0.175719
0.168717
0.162287
0.156371
0.150919
0.145894
0.141265
0.137007
0.1331
0.129523
0.126245
0.123216
0.120353
0.117523
0.114542
0.111183
0.107232
0.102481
0.0966876
0.0895058
0.0803484
0.0679487
0.0486586
0.0176247
0.361035
0.351416
0.338963
0.324736
0.309561
0.29404
0.278593
0.263518
0.24903
0.235305
0.222521
0.210824
0.200219
0.190623
0.181923
0.174005
0.166778
0.160162
0.154089
0.148506
0.143372
0.138656
0.134337
0.130405
0.126855
0.123685
0.120887
0.118434
0.116255
0.114202
0.112031
0.109405
0.106049
0.101739
0.0962448
0.0892453
0.0801814
0.0678166
0.0485295
0.0175108
0.336028
0.327875
0.317247
0.304933
0.291573
0.27765
0.263518
0.249431
0.235586
0.22221
0.209645
0.19829
0.188132
0.179023
0.170804
0.163347
0.15655
0.150328
0.144617
0.139367
0.134542
0.130118
0.126084
0.122442
0.119206
0.116399
0.114053
0.112188
0.110779
0.109697
0.108626
0.107009
0.104459
0.100727
0.0956124
0.0888367
0.0798858
0.0675635
0.0482798
0.0173012
0.313854
0.306821
0.297597
0.286772
0.274838
0.262169
0.24903
0.235586
0.221953
0.208312
0.195197
0.183919
0.174145
0.165522
0.157809
0.150841
0.144496
0.138686
0.133346
0.128428
0.123899
0.119741
0.115949
0.112532
0.109522
0.106969
0.104955
0.103584
0.102956
0.103069
0.103607
0.103537
0.102193
0.099283
0.0946811
0.0882005
0.0794008
0.0671416
0.0478702
0.0169693
0.29421
0.288036
0.279893
0.270229
0.259414
0.247719
0.235305
0.222209
0.208312
0.193218
0.176598
0.165221
0.155934
0.147926
0.140835
0.134452
0.12864
0.123306
0.118383
0.113824
0.109598
0.105686
0.102085
0.0988063
0.0958833
0.0933814
0.0914175
0.0901966
0.0900669
0.0915224
0.094814
0.0979461
0.0988239
0.0972172
0.093348
0.0872691
0.0786773
0.066514
0.0472713
0.0164967
0.276787
0.271278
0.263977
0.255224
0.245294
0.234369
0.22252
0.209644
0.195197
0.176598
0.00865464
0.00692866
0.00810885
0.00893969
0.00948324
0.00983482
0.0100507
0.0101676
0.0102138
0.0102127
0.0101853
0.0101535
0.0101418
0.0101818
0.0103179
0.0106258
0.0112562
0.0125916
0.0159105
0.0261391
0.0914199
0.0948916
0.0960515
0.0950357
0.0917315
0.0860538
0.0777029
0.0656665
0.0464705
0.0158767
0.261296
0.256306
0.249667
0.241638
0.232423
0.222144
0.210823
0.19829
0.183919
0.16522
0.00692873
0.000681163
0.000499929
0.000601751
0.000685673
0.000747309
0.000791352
0.00082143
0.000841021
0.000853071
0.000860698
0.000866936
0.000875616
0.000891209
0.000920732
0.000975543
0.00107886
0.00128553
0.00175901
0.00299378
0.0873554
0.0921814
0.0935608
0.0928614
0.0899502
0.0846154
0.0765045
0.0646122
0.0454747
0.015116
0.247467
0.242886
0.236774
0.229333
0.220718
0.211017
0.200218
0.188131
0.174145
0.155934
0.00810889
0.000499934
3.92618e-05
2.75045e-05
3.30939e-05
3.79854e-05
4.18411e-05
4.46862e-05
4.66968e-05
4.80605e-05
4.92086e-05
5.00611e-05
5.1001e-05
5.2359e-05
5.4812e-05
5.90509e-05
6.66345e-05
8.09709e-05
0.000110697
0.000170828
0.0836359
0.0896314
0.0912113
0.0907143
0.0880795
0.0830203
0.0751278
0.0633828
0.0443042
0.0142324
0.235057
0.230805
0.225123
0.218176
0.210086
0.200911
0.190622
0.179022
0.165522
0.147926
0.00893973
0.000601755
2.75048e-05
1.90514e-06
1.23051e-06
1.5045e-06
1.77857e-06
1.92063e-06
2.03462e-06
2.12651e-06
2.10668e-06
2.17488e-06
2.24654e-06
2.32998e-06
2.45298e-06
2.7411e-06
3.04276e-06
3.65585e-06
4.80252e-06
6.60618e-06
0.0802108
0.0871878
0.0889476
0.0885969
0.0861642
0.0813233
0.0736212
0.0620181
0.0429875
0.0132507
0.223864
0.219882
0.214564
0.208045
0.20042
0.191728
0.181922
0.170802
0.157808
0.140835
0.00948328
0.000685678
3.30942e-05
1.23053e-06
5.10427e-08
3.48589e-08
4.40485e-08
4.94136e-08
5.42296e-08
5.86008e-08
5.77578e-08
6.1236e-08
6.47941e-08
6.84833e-08
7.28988e-08
8.42476e-08
9.19145e-08
1.08423e-07
1.36312e-07
1.71378e-07
0.0770167
0.0848282
0.0867467
0.0865107
0.0842322
0.0795658
0.0720277
0.0605578
0.04156
0.0121991
0.21372
0.209968
0.204966
0.198824
0.191616
0.183362
0.174004
0.163346
0.15084
0.134452
0.00983485
0.000747313
3.79857e-05
1.50451e-06
3.48595e-08
1.02781e-09
7.1124e-10
8.31085e-10
9.52564e-10
1.07086e-09
1.06962e-09
1.16902e-09
1.27035e-09
1.37111e-09
1.47813e-09
1.75043e-09
1.88382e-09
2.18128e-09
2.6401e-09
3.10938e-09
0.0740163
0.0825403
0.0845983
0.0844567
0.0823013
0.0777777
0.0703827
0.059038
0.0400543
0.011107
0.204485
0.200933
0.196209
0.190404
0.183572
0.175718
0.166777
0.156549
0.144495
0.12864
0.0100507
0.000791356
4.18414e-05
1.77859e-06
4.40491e-08
7.11255e-10
1.63127e-11
1.01764e-11
1.21124e-11
1.41736e-11
1.44607e-11
1.62878e-11
1.81612e-11
1.99963e-11
2.18184e-11
2.6291e-11
2.79971e-11
3.19021e-11
3.74792e-11
4.21467e-11
0.0711826
0.0803143
0.0824956
0.0824355
0.080383
0.0759808
0.0687142
0.0574896
0.0384979
0.010004
0.196037
0.192662
0.188188
0.182686
0.176199
0.168716
0.160161
0.150327
0.138685
0.123305
0.0101677
0.000821434
4.46865e-05
1.92064e-06
4.94142e-08
8.31102e-10
1.01768e-11
1.91396e-13
1.20663e-13
1.45877e-13
1.5236e-13
1.76514e-13
2.01397e-13
2.25697e-13
2.48968e-13
3.03895e-13
3.21057e-13
3.6108e-13
4.15143e-13
4.51934e-13
0.0684929
0.0781401
0.080433
0.0804462
0.0784843
0.0741907
0.067045
0.0559391
0.0369139
0.00891931
0.188266
0.185051
0.180807
0.17559
0.169424
0.162286
0.154088
0.144616
0.133345
0.118382
0.0102138
0.000841025
4.66971e-05
2.03463e-06
5.42302e-08
9.52582e-10
1.21128e-11
1.20663e-13
1.35579e-15
4.50873e-16
5.68354e-16
8.85871e-16
1.19386e-15
1.51138e-15
1.77809e-15
2.41947e-15
2.57506e-15
2.97195e-15
3.44188e-15
3.71812e-15
0.0659273
0.0760071
0.0784044
0.0784869
0.0766097
0.0724193
0.0653935
0.054409
0.0353216
0.00788223
0.181082
0.178018
0.173991
0.169043
0.163182
0.15637
0.148505
0.139366
0.128427
0.113824
0.0102125
0.000853065
4.80605e-05
2.12652e-06
5.86015e-08
1.07088e-09
1.41739e-11
1.45877e-13
4.50873e-16
0
0
0
0
0
0
0
0
0
0
0
0.0634684
0.0739031
0.0764026
0.0765546
0.0747617
0.0706761
0.0637761
0.0529197
0.0337378
0.00692077
0.174407
0.171487
0.167669
0.162982
0.157416
0.150918
0.14337
0.13454
0.123898
0.109597
0.0101853
0.000860701
4.92088e-05
2.10669e-06
5.77584e-08
1.06964e-09
1.4461e-11
1.5236e-13
5.68354e-16
0
0
0
0
0
0
0
0
0
0
0
0.0611004
0.0718143
0.0744189
0.0746446
0.0729414
0.0689692
0.0622081
0.0514904
0.0321793
0.00605997
0.16817
0.16539
0.16178
0.157352
0.15208
0.145893
0.138654
0.130117
0.11974
0.105686
0.0101535
0.000866939
5.00614e-05
2.1749e-06
6.12367e-08
1.16904e-09
1.62882e-11
1.76514e-13
8.85871e-16
0
0
0
0
0
0
0
0
0
0
0
0.0588085
0.0697237
0.0724421
0.0727509
0.0711489
0.0673067
0.0607053
0.0501408
0.0306654
0.00531993
0.162306
0.159669
0.15627
0.152107
0.147135
0.141263
0.134336
0.126083
0.115948
0.102085
0.0101419
0.000875619
5.10012e-05
2.24655e-06
6.47947e-08
1.27037e-09
1.81615e-11
2.01397e-13
1.19386e-15
0
0
0
0
0
0
0
0
0
0
0
0.0565779
0.0676101
0.0704572
0.0708651
0.0693836
0.0656965
0.0592841
0.0488922
0.0292227
0.00471451
0.156758
0.154267
0.151087
0.1472
0.142544
0.137006
0.130404
0.122441
0.112531
0.0988058
0.0101818
0.000891212
5.23592e-05
2.33e-06
6.84838e-08
1.37113e-09
1.99966e-11
2.25697e-13
1.51138e-15
0
0
0
0
0
0
0
0
0
0
0
0.0543926
0.0654456
0.0684438
0.0689756
0.0676433
0.0641466
0.0579621
0.0477682
0.0278894
0.00425188
0.151469
0.149132
0.146185
0.142592
0.138275
0.133099
0.126854
0.119204
0.109521
0.0958828
0.0103179
0.000920735
5.48122e-05
2.453e-06
7.28994e-08
1.47815e-09
2.18189e-11
2.49057e-13
1.77809e-15
0
0
0
0
0
0
0
0
0
0
0
0.0522348
0.0631931
0.0663725
0.0670652
0.065923
0.0626643
0.0567571
0.0467955
0.0267196
0.00393688
0.146385
0.144214
0.141514
0.138239
0.134294
0.129522
0.123683
0.116398
0.106968
0.0933809
0.0106258
0.000975545
5.90511e-05
2.74111e-06
8.42481e-08
1.75045e-09
2.62915e-11
3.03895e-13
2.41947e-15
0
0
0
0
0
0
0
0
0
0
0
0.0500826
0.0608008
0.0641993
0.0651075
0.0642119
0.0612531
0.0556843
0.0460021
0.0257851
0.00377496
0.141453
0.139459
0.137024
0.134093
0.130557
0.126244
0.120886
0.114052
0.104954
0.091417
0.0112562
0.00107886
6.66347e-05
3.04277e-06
9.19151e-08
1.88384e-09
2.79974e-11
3.21057e-13
2.57506e-15
0
0
0
0
0
0
0
0
0
0
0
0.0479074
0.0581935
0.0618562
0.0630581
0.0624873
0.0599073
0.0547524
0.0454147
0.0251704
0.00377653
0.136615
0.13481
0.132657
0.130094
0.127006
0.123215
0.118433
0.112187
0.103583
0.0901962
0.0125916
0.00128554
8.09711e-05
3.65586e-06
1.08424e-07
2.1813e-09
3.19025e-11
3.6108e-13
2.97195e-15
0
0
0
0
0
0
0
0
0
0
0
0.0456694
0.0552559
0.0592318
0.06084
0.0607027
0.0586028
0.0539551
0.0450521
0.0249679
0.00396097
0.131808
0.130205
0.128346
0.126168
0.123561
0.120351
0.116254
0.110778
0.102955
0.0900664
0.0159105
0.00175901
0.000110698
4.80254e-06
1.36312e-07
2.64012e-09
3.74795e-11
4.15143e-13
3.44188e-15
0
0
0
0
0
0
0
0
0
0
0
0.0433082
0.0518036
0.0561384
0.0583131
0.0587652
0.0572804
0.0532579
0.0449126
0.0252587
0.00435944
0.126964
0.125569
0.124007
0.12222
0.12011
0.117522
0.114201
0.109696
0.103068
0.0915218
0.0261389
0.00299376
0.000170827
6.60618e-06
1.71378e-07
3.1094e-09
4.21471e-11
4.52051e-13
3.71812e-15
0
0
0
0
0
0
0
0
0
0
0
0.0407214
0.0475498
0.0522663
0.0552267
0.0564953
0.0558162
0.0525782
0.044956
0.02607
0.00502711
0.122002
0.120816
0.119545
0.118136
0.11651
0.114541
0.112029
0.108625
0.103606
0.0948133
0.0914192
0.0873547
0.0836353
0.0802102
0.0770161
0.0740158
0.0711821
0.0684924
0.0659269
0.0634681
0.0611001
0.0588082
0.0565776
0.0543924
0.0522346
0.0500824
0.0479073
0.0456693
0.0433081
0.0407214
0.0392545
0.0428455
0.0474653
0.0512798
0.0536073
0.0539875
0.051756
0.0450782
0.0273106
0.00600786
0.116822
0.115842
0.114842
0.113779
0.112591
0.111182
0.109404
0.107008
0.103536
0.0979452
0.0948907
0.0921805
0.0896306
0.0871869
0.0848274
0.0825395
0.0803135
0.0781394
0.0760064
0.0739025
0.0718137
0.0697231
0.0676095
0.0654451
0.0631927
0.0608004
0.0581932
0.0552557
0.0518035
0.0475498
0.0428456
0.0417049
0.0437931
0.0471251
0.0500883
0.0515664
0.0505501
0.0450872
0.0288384
0.00732941
0.111302
0.110516
0.109758
0.108995
0.108177
0.107231
0.106048
0.104458
0.102192
0.0988229
0.0960506
0.0935599
0.0912104
0.0889467
0.0867459
0.0845974
0.0824948
0.0804323
0.0784037
0.0764019
0.0744183
0.0724415
0.0704567
0.0684434
0.0663721
0.064199
0.0618559
0.0592316
0.0561383
0.0522663
0.0474654
0.0437931
0.0427875
0.0441395
0.046566
0.0485975
0.0487372
0.0447065
0.0304005
0.008977
0.105273
0.104664
0.104115
0.103598
0.103072
0.102479
0.101737
0.100726
0.0992819
0.0972162
0.0950347
0.0928604
0.0907133
0.088596
0.0865098
0.0844558
0.0824346
0.0804454
0.0784862
0.0765539
0.0746439
0.0727503
0.0708645
0.068975
0.0670647
0.0651071
0.0630578
0.0608397
0.0583129
0.0552266
0.0512798
0.0471251
0.0441395
0.0431591
0.0439701
0.0455444
0.0462948
0.0436492
0.0316345
0.0108489
0.098495
0.0980441
0.0976668
0.09734
0.0970293
0.0966864
0.0962437
0.0956113
0.09468
0.093347
0.0917305
0.0899493
0.0880786
0.0861633
0.0842313
0.0823004
0.0803821
0.0784835
0.076609
0.074761
0.0729407
0.0711483
0.069383
0.0676428
0.0659225
0.0642115
0.062487
0.0607024
0.0587649
0.0564952
0.0536073
0.0500883
0.046566
0.0439701
0.0428661
0.043069
0.0435081
0.0417616
0.0321291
0.0127245
0.0906002
0.0902832
0.0900411
0.0898533
0.0896887
0.0895048
0.0892443
0.0888357
0.0881996
0.0872682
0.0860529
0.0846145
0.0830194
0.0813225
0.0795649
0.0777769
0.0759799
0.0741899
0.0724185
0.0706753
0.0689685
0.067306
0.0656959
0.0641461
0.0626639
0.0612526
0.0599069
0.0586025
0.0572801
0.055816
0.0539873
0.0515663
0.0485975
0.0455444
0.043069
0.0415971
0.0408601
0.0391618
0.0315759
0.0142837
0.0809659
0.0807575
0.0806156
0.0805208
0.0804444
0.0803475
0.0801805
0.079885
0.0794
0.0786765
0.0777021
0.0765037
0.075127
0.0736204
0.0720269
0.0703819
0.0687135
0.0670443
0.0653928
0.0637754
0.0622075
0.0607047
0.0592836
0.0579617
0.0567566
0.0556839
0.0547521
0.0539548
0.0532576
0.052578
0.0517558
0.05055
0.0487371
0.0462947
0.0435081
0.0408601
0.0386591
0.0362084
0.0299616
0.0152334
0.0682726
0.068148
0.0680764
0.0680387
0.0680078
0.067948
0.0678159
0.0675628
0.0671409
0.0665133
0.0656659
0.0646116
0.0633822
0.0620174
0.0605572
0.0590374
0.0574891
0.0559385
0.0544085
0.0529192
0.05149
0.0501404
0.0488917
0.0477679
0.0467951
0.0460017
0.0454144
0.0450519
0.0449124
0.0449557
0.045078
0.045087
0.0447064
0.0436491
0.0417616
0.0391618
0.0362084
0.0329568
0.0274938
0.0154726
0.0488107
0.0487468
0.0487227