/*--------------------------------*- C++ -*----------------------------------*\
| =========                 |                                                 |
| \\      /  F ield         | OpenFOAM: The Open Source CFD Toolbox           |
|  \\    /   O peration     | Version:  2.1.0                                 |
|   \\  /    A nd           | Web:      www.OpenFOAM.org                      |
|    \\/     M anipulation  |                                                 |
\*---------------------------------------------------------------------------*/
FoamFile
{
    version     2.0;
    format      ascii;
    class       surfaceScalarField;
    location    "40150";
    object      phi_w;
}
// * * * * * * * * * * * * * * * * * * * * * * * * * * * * * * * * * * * * * //

dimensions      [1 -2 -2 0 0 0 0];

internalField   nonuniform List<scalar> 
22000
(
11.8204
11.8205
-20.2132
19.7307
10.4725
-15.1587
23.7696
8.65458
-9.80955
25.3068
6.94035
-5.93064
25.5478
5.52206
-3.50025
25.2466
4.40311
-2.06924
24.8091
3.52787
-1.24481
24.4332
2.83687
-0.76922
24.2051
2.28319
-0.490221
24.153
1.83393
-0.321728
24.2755
1.46749
-0.215814
24.5561
1.16982
-0.146098
24.9706
0.931028
-0.0984882
25.4916
0.743068
-0.0653992
26.0918
0.599001
-0.0421099
26.7453
0.492799
-0.0254304
27.4281
0.419499
-0.0132592
28.1176
0.375437
-0.00423946
28.7921
0.358376
0.00253486
29.4292
0.367665
0.0079112
30.005
0.404269
0.0123485
30.4923
0.470694
0.0161487
30.8599
0.570811
0.0195224
31.0711
0.709433
0.0226152
31.0841
0.891529
0.0255419
30.8531
1.1209
0.028415
30.3316
1.39825
0.0313423
29.4775
1.71885
0.0344443
28.2609
2.07051
0.0378921
26.6719
2.43318
0.0419175
24.726
2.78167
0.0468436
22.463
3.09178
0.0531584
19.9399
3.34709
0.0616222
17.2208
3.54198
0.0734309
14.3702
3.68023
0.0903546
11.4541
3.77133
0.114139
8.55366
3.82679
0.142033
5.78601
3.85766
0.149487
3.18851
3.87369
0.0583218
3.88229
-0.172539
10.4725
19.7306
-15.1586
17.9127
17.9127
-11.8829
22.0554
15.2545
-8.05118
23.8885
12.5667
-5.05609
24.4288
10.2153
-3.07426
24.3714
8.27746
-1.85998
24.1181
6.70965
-1.13924
23.8795
5.43877
-0.713766
23.7558
4.39917
-0.459506
23.7866
3.54244
-0.303524
23.9778
2.83624
-0.204142
24.3173
2.25926
-0.138098
24.7827
1.79535
-0.0928767
25.3476
1.43031
-0.061443
25.9856
1.15101
-0.039259
26.672
0.945624
-0.0232956
27.384
0.804256
-0.0115835
28.1006
0.719562
-0.00286537
28.8014
0.687038
0.00376089
29.4658
0.705453
0.00908005
30.0714
0.776819
0.0135162
30.5924
0.906357
0.0173475
30.9985
1.10224
0.0207657
31.2532
1.37492
0.0239151
31.3135
1.73567
0.0269037
31.1305
2.19404
0.0298319
30.6522
2.75375
0.0328095
29.8292
3.40739
0.0359539
28.6236
4.13097
0.0394213
27.0204
4.88163
0.0434347
25.0361
5.60289
0.0483125
22.7183
6.23954
0.0545409
20.1348
6.75576
0.0628909
17.359
7.14177
0.0745722
14.4613
7.4088
0.0913765
11.5095
7.57963
0.115114
8.58453
7.68005
0.143141
5.80204
7.73358
0.150908
3.19712
7.75952
0.0595432
7.77152
-0.17313
8.65457
23.7696
-9.80951
15.2546
22.0554
-8.05118
19.3676
19.3676
-5.77227
21.537
16.4485
-3.8233
22.491
13.7259
-2.43409
22.8036
11.3563
-1.53017
22.8472
9.34979
-0.966907
22.8399
7.66105
-0.620871
22.8991
6.23704
-0.407011
23.0804
5.03598
-0.271938
23.4009
4.0306
-0.183726
23.8534
3.2028
-0.124185
24.4176
2.53615
-0.0831847
25.0683
2.01286
-0.0545588
25.7802
1.61428
-0.0342105
26.5306
1.32263
-0.0194409
27.2993
1.12284
-0.00851441
28.0681
1.00365
-0.000337549
28.8198
0.958295
0.00604626
29.5371
0.984936
0.0112553
30.2009
1.08675
0.0156677
30.7883
1.27199
0.019533
31.2712
1.55387
0.0230205
31.6139
1.94991
0.0262556
31.7718
2.48029
0.0293352
31.6902
3.16435
0.0323502
31.3059
4.01421
0.035393
30.5527
5.02516
0.0385661
29.3742
6.16371
0.0420116
27.7417
7.35902
0.0459382
25.6728
8.50839
0.0506619
23.2346
9.50754
0.0566833
20.5208
10.2946
0.064794
17.626
10.8606
0.07623
14.6321
11.2338
0.0928164
11.6099
11.4587
0.116419
8.63807
11.5809
0.144521
5.82797
11.6391
0.152647
3.20911
11.6631
0.061187
11.6725
-0.173348
6.94037
25.3068
-5.93066
12.5667
23.8885
-5.05609
16.4485
21.537
-3.8233
18.8144
18.8144
-2.67606
20.1214
16.1111
-1.79334
20.7971
13.6198
-1.17937
21.1585
11.4004
-0.774142
21.4159
9.44837
-0.512492
21.698
7.74006
-0.343531
22.075
6.25707
-0.232579
22.5731
4.99278
-0.157855
23.1868
3.94476
-0.106534
23.8943
3.10268
-0.0708772
24.6697
2.44654
-0.0457315
25.4886
1.9513
-0.0276396
26.3308
1.59213
-0.0143441
27.1801
1.34795
-0.00441079
28.0227
1.20311
0.00315763
28.8464
1.14849
0.00923943
29.639
1.18159
0.0143176
30.3862
1.30676
0.0187097
31.0702
1.53548
0.0226251
31.6672
1.88668
0.0262073
32.1443
2.38665
0.0295625
32.4559
3.068
0.032766
32.5401
3.96615
0.0358905
32.3168
5.11137
0.0390053
31.6913
6.51343
0.0421853
30.5695
8.13806
0.0455521
28.8911
9.88094
0.0493062
26.6719
11.5629
0.0537692
24.0216
12.9866
0.059461
21.0868
14.0537
0.0672025
17.9992
14.7717
0.0782615
14.857
15.2066
0.0945021
11.7321
15.4401
0.117857
8.69632
15.5456
0.145939
5.85194
15.5803
0.154348
3.21854
15.5845
0.0628358
15.5831
-0.173349
5.52208
25.5478
-3.50027
10.2153
24.4288
-3.07425
13.7259
22.491
-2.43409
16.1111
20.1214
-1.79334
17.6301
17.6301
-1.26382
18.5777
15.203
-0.870246
19.2064
12.9248
-0.594333
19.7076
10.8223
-0.406106
20.2151
8.9025
-0.278298
20.8107
7.17859
-0.190626
21.5251
5.67955
-0.129781
22.3447
4.43599
-0.0872806
23.2382
3.44836
-0.0573178
24.1744
2.69146
-0.0358424
25.1294
2.12964
-0.0201353
26.0867
1.72805
-0.00843352
27.0353
1.45802
0.000395993
27.9681
1.29918
0.00739841
28.8795
1.23983
0.0131828
29.7641
1.2767
0.0181475
30.6149
1.41516
0.0225527
31.4214
1.66969
0.0265638
32.1672
2.065
0.0302953
32.8256
2.63725
0.0338299
33.354
3.43495
0.0372129
33.6853
4.51766
0.0404835
33.7189
5.94896
0.0436807
33.3159
7.77684
0.0468492
32.3124
9.99211
0.0500869
30.573
12.4619
0.0535847
28.0957
14.8739
0.0576709
25.0887
16.8207
0.0628946
21.8048
18.1605
0.0701183
18.4342
18.9644
0.0806454
15.0905
19.3795
0.0963799
11.8376
19.5483
0.119317
8.73098
19.5806
0.14722
5.85612
19.5526
0.155754
3.21722
19.5137
0.0640046
19.4914
-0.173739
4.40312
25.2467
-2.06925
8.27746
24.3714
-1.85999
11.3563
22.8036
-1.53017
13.6198
20.7971
-1.17936
15.2029
18.5778
-0.870246
16.2996
16.2996
-0.625531
17.104
14.0468
-0.443301
17.7877
11.8582
-0.311652
18.4912
9.75968
-0.217446
19.3117
7.79574
-0.150164
20.2815
6.0509
-0.102274
21.3571
4.62466
-0.0681503
22.4813
3.52612
-0.043584
23.6126
2.71107
-0.0256054
24.7278
2.12287
-0.0122172
25.8166
1.71151
-0.00210925
26.8764
1.43924
0.00576891
27.9087
1.28088
0.0122474
28.9164
1.22235
0.0177894
29.9026
1.25965
0.0227018
30.8694
1.39863
0.0271929
31.8167
1.65582
0.031387
32.7394
2.06044
0.0353656
33.6233
2.65767
0.0391773
34.4367
3.51318
0.0428298
35.1166
4.71772
0.0463223
35.5467
6.38781
0.0496525
35.5312
8.65116
0.0528295
34.7822
11.5902
0.0559214
32.985
15.0993
0.0590957
30.0424
18.6485
0.0626735
26.4285
21.26
0.0672384
22.6086
22.8012
0.0737225
18.8493
23.5438
0.08349
15.2593
23.7969
0.0985108
11.8699
23.7912
0.120871
8.70305
23.6748
0.148417
5.81724
23.5365
0.156769
3.19489
23.4278
0.0642426
23.3731
-0.17527
3.52788
24.8091
-1.24482
6.70965
24.1181
-1.13925
9.34979
22.8473
-0.966909
11.4004
21.1585
-0.774137
12.9248
19.2065
-0.594329
14.0467
17.104
-0.443303
14.9154
14.9155
-0.323963
15.6892
12.6688
-0.232719
16.5272
10.3833
-0.164324
17.5669
8.11895
-0.113935
18.8553
6.04532
-0.0771914
20.2585
4.43891
-0.0503227
21.6663
3.28219
-0.0304746
23.0244
2.47224
-0.0156199
24.3164
1.91277
-0.00437292
25.5443
1.5334
0.00434063
26.7181
1.28766
0.011465
27.8502
1.14692
0.0175576
28.9537
1.0959
0.0229747
30.0416
1.13014
0.0279511
31.1266
1.25525
0.0326504
32.2213
1.48783
0.0371621
33.3367
1.85832
0.0415343
34.4789
2.41644
0.0457747
35.6413
3.2404
0.0498432
36.7867
4.4514
0.0536916
37.8101
6.23349
0.0572704
38.4702
8.85046
0.0605442
38.2914
12.6188
0.0635431
36.5342
17.6967
0.0663821
32.6539
23.3602
0.0692987
27.9698
26.768
0.0728962
23.3512
28.2385
0.0782957
19.1024
28.6102
0.0870061
15.2536
28.4707
0.101074
11.7535
28.1428
0.122643
8.56481
27.7898
0.149607
5.70847
27.4916
0.157322
3.14023
27.2875
0.0630637
27.1902
-0.178736
2.83687
24.4332
-0.769234
5.43877
23.8795
-0.713773
7.66105
22.84
-0.620876
9.44837
21.4159
-0.512495
10.8223
19.7076
-0.406109
11.8582
17.7878
-0.311656
12.6687
15.6892
-0.232719
13.4037
13.4038
-0.169417
14.2629
10.8984
-0.120371
15.4932
8.18284
-0.0833157
17.2488
5.51718
-0.0555817
19.1018
3.75776
-0.0346319
20.8563
2.65328
-0.0187006
22.4649
1.9508
-0.00652999
23.9371
1.49519
0.00289446
25.2986
1.19877
0.0106113
26.5774
1.01214
0.0172102
27.7992
0.907856
0.0231039
28.9879
0.872051
0.0285623
30.1667
0.900633
0.0337695
31.3592
0.99808
0.0388501
32.5918
1.17824
0.0438607
33.8948
1.46734
0.0488179
35.3028
1.91041
0.0536916
36.8523
2.58371
0.0583926
38.5688
3.61898
0.0628171
40.4271
5.25079
0.0668618
42.2385
7.90593
0.0704537
43.3693
12.3453
0.0736019
42.1977
19.7151
0.0763325
36.0617
30.3313
0.078518
29.4403
34.2141
0.0806054
23.7229
34.7733
0.0843032
18.9628
34.1856
0.0914666
14.9257
33.3301
0.104278
11.4005
32.5175
0.124859
8.26667
31.849
0.150967
5.5043
31.3537
0.157378
3.04299
31.0378
0.0599564
30.8922
-0.184924
2.28319
24.2052
-0.490233
4.39917
23.7559
-0.459514
6.23704
22.8992
-0.407023
7.74005
21.6981
-0.343539
8.90248
20.2151
-0.278306
9.75965
18.4912
-0.217451
10.3833
16.5273
-0.164325
10.8983
14.2629
-0.120371
11.5473
11.5474
-0.085504
12.8276
8.13506
-0.0586555
15.4894
4.03146
-0.0383032
17.9973
2.37777
-0.022103
20.1538
1.58499
-0.00932006
22.0093
1.15072
0.000679947
23.6407
0.892252
0.00890695
25.112
0.733301
0.015961
26.4731
0.638072
0.022276
27.7634
0.588672
0.0281642
29.0165
0.576587
0.0338275
30.2641
0.599349
0.0394189
31.5394
0.659526
0.0450404
32.8809
0.765204
0.0507213
34.3379
0.932022
0.056455
35.9761
1.18782
0.0621785
37.8875
1.58265
0.0677532
40.2006
2.21138
0.0730224
43.0822
3.26954
0.0778444
46.6778
5.2047
0.0821792
50.7391
9.17031
0.0862211
52.8139
18.5148
0.0900937
39.9446
44.0578
0.0921748
29.9994
44.9949
0.0915678
23.1352
42.458
0.0924145
18.1073
40.028
0.0973204
14.1131
38.1443
0.108449
10.732
36.746
0.127763
7.77142
35.7342
0.152671
5.18838
35.0379
0.156928
2.89746
34.6127
0.0544861
34.4211
-0.194425
1.83393
24.1531
-0.321735
3.54243
23.7867
-0.303535
5.03598
23.0805
-0.271947
6.25707
22.0751
-0.232584
7.17857
20.8108
-0.190632
7.79571
19.3118
-0.150166
8.11892
17.5669
-0.113934
8.18279
15.4933
-0.0833157
8.13498
12.8277
-0.0586553
8.72394
8.7241
-0.0400475
13.8357
2.60025
-0.0275153
17.2045
4.85355
-0.0152091
19.7196
6.28687
-0.00475064
21.7509
7.5158
0.00379733
23.4817
8.66558
0.0111681
25.0168
9.77963
0.0177313
26.4237
10.8804
0.0237983
27.7513
11.9837
0.029625
29.0393
13.103
0.0353774
30.3243
14.251
0.0411935
31.645
15.4424
0.0471675
33.0477
16.6961
0.0533196
34.5937
18.0358
0.0596364
36.3709
19.4975
0.0660352
38.5163
21.139
0.0723393
41.2587
23.0659
0.0783513
45.0174
25.5195
0.0839253
50.6434
29.2246
0.0892629
60.0836
37.0577
0.0956832
78.357
62.9392
0.105742
40.8817
82.5411
0.112507
27.4625
59.317
0.106538
20.7052
50.0569
0.102765
16.2236
45.3286
0.104628
12.7149
42.4723
0.113726
9.72018
40.5865
0.131548
7.07507
39.3042
0.154907
4.76318
38.4533
0.156045
2.70593
37.9461
0.0464091
37.7206
-0.207417
1.46748
24.2756
-0.215818
2.83623
23.9779
-0.204149
4.0306
23.401
-0.183729
4.99277
22.5732
-0.157857
5.67953
21.5251
-0.129786
6.05088
20.2816
-0.102275
6.04529
18.8554
-0.0771905
5.51714
17.249
-0.0555832
4.03141
15.4896
-0.038301
2.6001
13.8359
-0.027512
16.089
16.0893
-0.262521
18.6379
25.9457
-0.38952
20.9485
32.7813
-0.466936
22.9007
38.1276
-0.541681
24.5957
42.6281
-0.614904
26.1175
46.5963
-0.688773
27.527
50.2104
-0.76457
28.8706
53.5861
-0.843083
30.1872
56.8062
-0.92607
31.5157
59.9408
-1.01417
32.8987
63.0572
-1.10803
34.3875
66.2269
-1.20985
36.0553
69.5368
-1.32064
38.0124
73.1023
-1.44177
40.4432
77.089
-1.57652
43.7123
81.7534
-1.72708
48.7224
87.5033
-1.8934
58.4765
94.8908
-2.0554
85.9652
103.689
-2.04522
97.9588
105.098
-0.990324
17.6576
68.1539
0.114303
18.2024
59.655
0.11026
15.9769
53.1296
0.109643
13.3673
48.7625
0.111675
10.8291
45.8312
0.119737
8.43786
43.8236
0.136285
6.22417
42.4445
0.157875
4.25593
41.5294
0.154947
2.4805
40.9872
0.0357383
40.7474
-0.223538
1.16981
24.5562
-0.146099
2.25926
24.3174
-0.138096
3.2028
23.8535
-0.124181
3.94475
23.1869
-0.106538
4.43598
22.3448
-0.0872846
4.62464
21.3572
-0.0681503
4.43889
20.2586
-0.0503217
3.75773
19.1019
-0.0346336
2.37775
17.9974
-0.022101
4.85351
17.2047
-0.0152069
25.9455
18.638
-0.389519
25.4734
25.4736
-0.291029
26.2948
31.3698
-0.27472
27.4012
36.4203
-0.318762
28.5639
40.8345
-0.374807
29.7317
44.7751
-0.433993
30.9026
48.3657
-0.492348
32.0907
51.6981
-0.54991
33.3219
54.8459
-0.606783
34.6321
57.871
-0.663142
36.0683
60.8296
-0.720857
37.6975
63.7771
-0.782837
39.6208
66.7712
-0.852119
41.9991
69.8723
-0.934723
45.1076
73.1399
-1.04158
49.4623
76.6092
-1.18951
56.1099
80.202
-1.4096
67.275
83.4151
-1.75314
87.3741
84.3235
-2.23917
61.0145
76.85
-2.31425
9.15873
61.7147
0.073532
11.6771
58.024
0.105858
11.6098
54.0484
0.114413
10.4359
50.7646
0.11852
8.82155
48.2685
0.126399
7.05876
46.4342
0.142044
5.30906
45.1249
0.161789
3.71371
44.2396
0.153934
2.2407
43.7132
0.0226499
43.4801
-0.241893
0.931029
24.9707
-0.0984876
1.79535
24.7828
-0.092873
2.53615
24.4177
-0.0831821
3.10267
23.8944
-0.0708831
3.44835
23.2383
-0.057319
3.5261
22.4814
-0.0435826
3.28217
21.6664
-0.0304737
2.65326
20.8564
-0.0187026
1.58498
20.1539
-0.00931759
6.28686
19.7197
-0.00474945
32.781
20.9486
-0.466938
31.3696
26.2949
-0.27472
31.3452
31.3454
-0.155505
31.8154
35.9421
-0.137282
32.5045
40.1106
-0.14028
33.3223
43.906
-0.151493
34.235
47.3933
-0.166338
35.2385
50.6341
-0.182388
36.3471
53.6806
-0.199543
37.5907
56.5784
-0.217711
39.0158
59.367
-0.236757
40.6916
62.0783
-0.257885
42.7219
64.735
-0.282569
45.2667
67.3425
-0.312258
48.577
69.8682
-0.350428
53.055
72.1962
-0.401202
59.3231
74.0237
-0.467576
68.1834
74.6425
-0.543565
79.9006
72.572
-0.5768
45.8792
65.3722
-0.362213
5.46801
58.514
0.0758795
7.70146
56.6756
0.110326
8.32597
54.2771
0.12126
7.93986
51.9819
0.126214
6.98723
50.047
0.133964
5.74943
48.5234
0.148939
4.42378
47.3876
0.166829
3.18728
46.6009
0.153297
2.00759
46.1306
0.0073843
45.9215
-0.261139
0.743079
25.4917
-0.0653941
1.43032
25.3476
-0.06144
2.01286
25.0683
-0.0545611
2.44653
24.6698
-0.0457332
2.69146
24.1745
-0.0358378
2.71106
23.6127
-0.0256028
2.47224
23.0245
-0.015619
1.95079
22.465
-0.00653103
1.15071
22.0094
0.000682598
7.5158
21.751
0.00379963
38.1274
22.9008
-0.541682
36.4201
27.4013
-0.318761
35.9419
31.8156
-0.137281
35.9839
35.9841
-0.0948761
36.2999
39.8683
-0.0816869
36.8096
43.4659
-0.0797255
37.4758
46.7994
-0.0826441
38.285
49.9009
-0.0884554
39.2449
52.8032
-0.095876
40.3793
55.5349
-0.104047
41.7271
58.1183
-0.113236
43.3482
60.5664
-0.123845
45.3295
62.8756
-0.135947
47.7924
65.0155
-0.150303
50.9049
66.9082
-0.167873
54.8825
68.3912
-0.188218
59.9419
69.1555
-0.208549
66.113
68.6677
-0.218292
72.7008
66.1404
-0.185749
39.0209
60.8115
-0.0488534
3.62966
56.9007
0.0905677
5.30299
55.882
0.120251
6.03069
54.403
0.130346
6.00494
52.841
0.135094
5.46371
51.4172
0.14258
4.61362
50.23
0.157042
3.63711
49.3099
0.173119
2.71694
48.6589
0.153355
1.79849
48.2697
-0.0090594
48.0954
-0.279492
0.599018
26.0919
-0.0421023
1.15103
25.9857
-0.039255
1.61427
25.7803
-0.0342147
1.95129
25.4886
-0.0276365
2.12965
25.1295
-0.0201282
2.12287
24.7279
-0.0122143
1.91276
24.3165
-0.00437325
1.49518
23.9372
0.00289471
0.892249
23.6407
0.00890798
8.66558
23.4818
0.0111708
42.6279
24.5958
-0.614906
40.8343
28.564
-0.374807
40.1104
32.5046
-0.140279
39.8682
36.3
-0.0816866
39.8975
39.8976
-0.0586414
40.1432
43.2687
-0.0499936
40.5772
46.412
-0.047449
41.1873
49.3383
-0.0482406
41.9766
52.0634
-0.0511687
42.9627
54.6024
-0.0551086
44.1752
56.9645
-0.0595651
45.6575
59.1478
-0.0651293
47.4693
61.134
-0.0714991
49.6851
62.8777
-0.078432
52.3879
64.2914
-0.0863087
55.6468
65.2255
-0.0938496
59.4541
65.4454
-0.0976266
63.5857
64.6254
-0.0900791
67.3718
62.4093
-0.0561534
35.1101
58.6287
0.0278156
2.61095
56.1506
0.106236
3.82402
55.5437
0.132191
4.46869
54.6121
0.140911
4.58112
53.564
0.145075
4.27649
52.5543
0.152252
3.69357
51.6754
0.166333
2.98612
50.9738
0.180682
2.32777
50.4708
0.154265
1.62411
50.1748
-0.0260435
50.0392
-0.295164
0.492816
26.7454
-0.0254232
0.945634
26.672
-0.0232926
1.32263
26.5307
-0.0194428
1.59213
26.3309
-0.0143384
1.72805
26.0867
-0.00842577
1.71151
25.8167
-0.00210543
1.53339
25.5444
0.00433791
1.19876
25.2987
0.0106117
0.733298
25.112
0.0159608
9.77964
25.0168
0.0177336
46.5961
26.1176
-0.688777
44.7749
29.7318
-0.433993
43.9058
33.3224
-0.151493
43.4658
36.8097
-0.079725
43.2686
40.1432
-0.0499934
43.2864
43.2865
-0.0364855
43.5035
46.2246
-0.0305436
43.9124
48.9567
-0.0286049
44.5156
51.4877
-0.0289667
45.3247
53.8225
-0.0303476
46.3585
55.9617
-0.0324114
47.6436
57.8962
-0.035269
49.2131
59.6019
-0.0383095
51.0989
61.0326
-0.0413191
53.3219
62.112
-0.0443949
55.8667
62.726
-0.0458717
58.6341
62.7211
-0.0431262
61.3696
61.9218
-0.0317918
63.5912
60.1897
-0.00283804
32.632
57.543
0.0588905
2.00407
55.9017
0.121065
2.89236
55.5271
0.144848
3.42061
54.9382
0.152415
3.57146
54.2508
0.155966
3.39754
53.5648
0.162896
2.99193
52.9504
0.17674
2.48317
52.4515
0.189488
2.03175
52.0945
0.1559
1.48852
51.8945
-0.0443815
51.7977
-0.306826
0.419513
27.4281
-0.013253
0.80426
27.3841
-0.0115815
1.12285
27.2994
-0.00851188
1.34796
27.1802
-0.0044043
1.45802
27.0353
0.000402982
1.43924
26.8765
0.0057716
1.28765
26.7181
0.0114603
1.01214
26.5774
0.0172088
0.638069
26.4731
0.0222752
10.8804
26.4237
0.0238002
50.2102
27.527
-0.764578
48.3655
30.9026
-0.492349
47.3931
34.235
-0.166337
46.7993
37.4758
-0.0826435
46.4119
40.5773
-0.0474486
46.2246
43.5036
-0.0305434
46.2356
46.2356
-0.0221438
46.4434
48.7671
-0.0182574
46.8504
51.097
-0.017132
47.4639
53.2258
-0.0170862
48.293
55.15
-0.0176071
49.3494
56.8584
-0.0188787
50.6437
58.3279
-0.0201563
52.1783
59.5197
-0.0209633
53.9359
60.3764
-0.0215928
55.8618
60.821
-0.0206551
57.8349
60.764
-0.015849
59.6375
60.1227
-0.0037892
60.9445
58.8606
0.0221842
30.9907
57.0437
0.0759982
1.62939
55.9519
0.135154
2.30346
55.7229
0.157821
2.73326
55.3639
0.16456
2.88541
54.9389
0.167618
2.78323
54.5079
0.174444
2.49298
54.118
0.188246
2.12618
53.8018
0.199548
1.83173
53.5832
0.158078
1.39175
53.4778
-0.0650212
53.418
-0.313708
0.375443
28.1177
-0.00423348
0.719561
28.1006
-0.00286284
1.00366
28.0681
-0.000330887
1.20312
28.0227
0.00316424
1.29918
27.9681
0.00740325
1.28088
27.9088
0.0122469
1.14692
27.8502
0.0175529
0.907851
27.7992
0.0230997
0.58867
27.7634
0.0281629
11.9837
27.7513
0.0296266
53.5858
28.8706
-0.843093
51.698
32.0907
-0.549912
50.6339
35.2385
-0.182388
49.9007
38.285
-0.0884546
49.3382
41.1873
-0.0482401
48.9566
43.9124
-0.0286046
48.7671
46.4434
-0.0182573
48.7733
48.7733
-0.013207
48.9792
50.901
-0.0110527
49.3882
52.8263
-0.0100679
50.0015
54.5458
-0.00964302
50.8189
56.0499
-0.0100992
51.8355
57.3207
-0.010495
53.035
58.3299
-0.010187
54.3805
59.0393
-0.00964663
55.8048
59.4033
-0.00748431
57.1936
59.3768
-0.00168715
58.3755
58.9302
0.0105086
59.1276
58.073
0.0354894
29.899
56.8773
0.0879886
1.4004
56.1756
0.148823
1.94445
56.0486
0.171021
2.30823
55.8578
0.177241
2.45444
55.6362
0.179989
2.39326
55.4152
0.186911
2.17684
55.2205
0.200945
1.90756
55.0714
0.210919
1.72632
54.9842
0.160555
1.33199
54.9713
-0.0891178
54.9471
-0.315864
0.358373
28.7921
0.00253908
0.687036
28.8014
0.00376446
0.958305
28.8198
0.00605456
1.1485
28.8464
0.00924501
1.23982
28.8795
0.0131839
1.22234
28.9164
0.0177862
1.0959
28.9537
0.0229723
0.872044
28.9879
0.0285571
0.576587
29.0165
0.0338257
13.1031
29.0393
0.035378
56.8059
30.1872
-0.926084
54.8457
33.3219
-0.606785
53.6804
36.347
-0.199542
52.803
39.2448
-0.0958751
52.0633
41.9766
-0.0511682
51.4876
44.5155
-0.0289665
51.097
46.8503
-0.017132
50.9011
48.9791
-0.0110529
50.9044
50.9043
-0.0081358
51.1077
52.6288
-0.00660092
51.5056
54.1525
-0.00560202
52.0897
55.47
-0.00551637
52.8447
56.5697
-0.00537188
53.7444
57.4341
-0.004464
54.7445
58.0413
-0.0031256
55.7783
58.3691
-0.000350016
56.7469
58.4017
0.00593639
57.5183
58.1403
0.0184606
57.932
57.6152
0.0437052
29.1972
56.8949
0.0978821
1.27333
56.4854
0.162404
1.75368
56.4388
0.18453
2.08662
56.3853
0.1905
2.2335
56.3367
0.193145
2.19857
56.302
0.200401
2.02769
56.2877
0.215012
1.82034
56.2982
0.223728
1.71345
56.34
0.163097
1.30777
56.4192
-0.117784
56.4312
-0.314286
0.367657
29.4292
0.00791233
0.705451
29.4658
0.00908328
0.984946
29.5371
0.0112629
1.18159
29.6389
0.0143209
1.27669
29.7641
0.0181445
1.25964
29.9026
0.0226982
1.13014
30.0415
0.0279529
0.900627
30.1666
0.0337663
0.599349
30.2641
0.039417
14.251
30.3243
0.0411915
59.9406
31.5157
-1.01419
57.8708
34.632
-0.66314
56.5782
37.5906
-0.217709
55.5348
40.3792
-0.104045
54.6023
42.9626
-0.055108
53.8224
45.3246
-0.0303476
53.2257
47.4638
-0.0170865
52.8263
49.388
-0.0100683
52.6289
51.1075
-0.00660117
52.6314
52.6312
-0.00459307
52.8231
53.9638
-0.00323182
53.1893
55.1056
-0.00283331
53.7091
56.0513
-0.00240898
54.3516
56.7924
-0.0012457
55.0724
57.3192
0.000461234
55.8108
57.6259
0.00377322
56.4856
57.716
0.0104127
56.9931
57.6089
0.0234297
57.2117
57.3464
0.0497984
28.7878
56.9938
0.107079
1.22668
56.8118
0.176284
1.70024
56.8377
0.198607
2.03794
56.9115
0.204494
2.19888
57.0274
0.207236
2.18424
57.175
0.215134
2.03815
57.3415
0.230702
1.86213
57.5153
0.238214
1.79265
57.6909
0.165597
1.31979
57.8648
-0.151519
57.9173
-0.31076
0.40426
30.0049
0.012348
0.776818
30.0713
0.0135194
1.08676
30.2009
0.015674
1.30675
30.3861
0.0187105
1.41514
30.6148
0.0225475
1.39861
30.8694
0.0271904
1.25525
31.1266
0.0326559
0.998075
31.3591
0.0388512
0.659526
31.5393
0.0450392
15.4424
31.645
0.0471624
63.057
32.8986
-1.10804
60.8293
36.0682
-0.720874
59.3668
39.0157
-0.236747
58.1181
41.727
-0.113232
56.9643
44.175
-0.0595643
55.9616
46.3583
-0.0324116
55.15
48.2928
-0.0176077
54.5458
50.0012
-0.00964386
54.1526
51.5054
-0.00560273
53.964
52.8229
-0.00323226
53.9649
53.9646
-0.00174746
54.135
54.9356
-0.00115313
54.4501
55.7358
-0.000552114
54.8784
56.3627
0.000774733
55.3792
56.815
0.00274674
55.9009
57.0969
0.00642453
56.3785
57.2243
0.0134657
56.7306
57.2291
0.0271678
56.8591
57.1623
0.0551306
28.6058
57.0913
0.116383
1.25259
57.0906
0.190902
1.77403
57.1915
0.213569
2.15382
57.3993
0.219491
2.34646
57.6911
0.222543
2.35077
58.0361
0.231447
2.2119
58.4006
0.248387
2.03778
58.7546
0.254764
1.96654
59.0784
0.168153
1.37228
59.3541
-0.189593
59.4557
-0.307472
0.470689
30.4922
0.0161497
0.906358
30.5924
0.0173523
1.272
30.7882
0.0195384
1.53547
31.0701
0.022624
1.66968
31.4213
0.0265587
1.65581
31.8166
0.031386
1.48783
32.2212
0.0371692
1.17823
32.5917
0.0438656
0.765203
32.8808
0.050721
16.6961
33.0476
0.0533122
66.2266
34.3874
-1.20986
63.7768
37.6973
-0.782833
62.0781
40.6914
-0.25788
60.5662
43.348
-0.123844
59.1476
45.6572
-0.0651292
57.8961
47.6434
-0.0352697
56.8584
49.3491
-0.0188799
56.0499
50.8186
-0.0101007
55.4701
52.0894
-0.00551777
55.1058
53.189
-0.00283444
54.9358
54.1347
-0.00115381
54.9353
54.935
-0.000227853
55.077
55.5923
0.000721085
55.3306
56.1065
0.00219464
55.6611
56.4793
0.00449363
56.0283
56.7203
0.00843434
56.3833
56.8525
0.0158764
56.6638
56.9173
0.0304709
56.7882
56.9769
0.0604282
28.6051
57.1093
0.126251
1.35345
57.2532
0.206699
1.98187
57.4414
0.229778
2.44564
57.8073
0.235873
2.69137
58.307
0.239503
2.71532
58.8852
0.249818
2.56586
59.4837
0.26857
2.36159
60.0504
0.273888
2.2423
60.5484
0.171059
1.47385
60.94
-0.229761
61.1038
-0.306529
0.570811
30.8598
0.0195279
1.10224
30.9984
0.0207733
1.55387
31.2711
0.0230253
1.88667
31.6671
0.0262056
2.06499
32.1671
0.0302916
2.06042
32.7393
0.0353659
1.85831
33.3365
0.0415405
1.46734
33.8947
0.0488247
0.932021
34.3377
0.056455
18.0358
34.5935
0.059628
69.5365
36.0552
-1.32064
66.7709
39.6206
-0.852117
64.7347
42.7217
-0.282566
62.8754
45.3292
-0.135945
61.1338
47.4691
-0.0714996
59.6018
49.2127
-0.0383109
58.3279
50.6434
-0.0201583
57.3207
51.8351
-0.0104972
56.5698
52.8443
-0.00537412
56.0515
53.7087
-0.00241097
55.7361
54.4498
-0.000553681
55.5926
55.0767
0.000720192
55.5912
55.5909
0.00198779
55.7034
55.9899
0.00352132
55.9021
56.2736
0.00599564
56.1605
56.4505
0.0102359
56.4481
56.5455
0.0182479
56.7233
56.6072
0.033937
56.9206
56.7129
0.0661914
28.749
56.9638
0.137142
1.54165
57.2172
0.224219
2.34771
57.5173
0.247793
2.94535
58.0857
0.254265
3.26955
58.8498
0.258786
3.31391
59.7219
0.270925
3.13255
60.6128
0.291924
2.85959
61.4432
0.296247
2.63385
62.1555
0.174848
1.63766
62.6865
-0.268508
62.93
-0.309395
0.709436
31.0709
0.0226251
1.37492
31.253
0.0239237
1.9499
31.6138
0.0262597
2.38663
32.1442
0.0295617
2.63723
32.8255
0.0338284
2.65765
33.6232
0.0391785
2.41643
34.4787
0.045779
1.91041
35.3026
0.053698
1.18782
35.9759
0.0621783
19.4975
36.3708
0.066027
73.1019
38.0122
-1.44177
69.872
41.9989
-0.934717
67.3422
45.2664
-0.312255
65.0152
47.7921
-0.150302
62.8775
49.6848
-0.0784333
61.0325
51.0985
-0.0413215
59.5196
52.1779
-0.0209662
58.3299
53.0346
-0.0101902
57.4342
53.744
-0.00446723
56.7925
54.3511
-0.0012487
56.363
54.8779
0.000772139
56.1068
55.3301
0.00219271
55.9903
55.703
0.00352025
55.9871
55.9866
0.00518402
56.079
56.1724
0.00786437
56.2555
56.2601
0.0125018
56.5099
56.2686
0.0212072
56.829
56.249
0.038172
57.1715
56.2967
0.0730001
29.0024
56.5546
0.149817
1.84172
56.8743
0.244357
2.91615
57.3285
0.268551
3.70947
58.1731
0.275653
4.14159
59.2905
0.281388
4.20479
60.5478
0.295754
3.963
61.8161
0.319437
3.57184
62.9832
0.322834
3.16483
63.9661
0.180591
1.88123
64.673
-0.301707
65.0186
-0.316443
0.891532
31.0839
0.025552
1.73567
31.3133
0.0269101
2.48027
31.7717
0.0293384
3.06797
32.4557
0.0327669
3.43492
33.3539
0.0372135
3.51316
34.4366
0.0428311
3.24038
35.6411
0.0498457
2.5837
36.8521
0.0583975
1.58265
37.8873
0.0677525
21.1389
38.5161
0.0723321
77.0886
40.443
-1.57651
73.1395
45.1073
-1.04157
69.8679
48.5766
-0.350426
66.908
50.9046
-0.167873
64.2912
52.3875
-0.0863111
62.1118
53.3215
-0.0443983
60.3763
53.9355
-0.0215969
59.0393
54.3801
-0.00965106
58.0413
54.744
-0.00313004
57.3193
55.0719
0.000456988
56.8152
55.3787
0.00274287
56.4796
55.6606
0.00449041
56.2739
55.9016
0.00599328
56.1728
56.0785
0.00786308
56.1667
56.1662
0.010809
56.264
56.1454
0.015936
56.4903
56.0158
0.0254358
56.8767
55.8178
0.043827
57.4294
55.6619
0.0815847
29.3221
55.755
0.165235
2.29598
56.0721
0.268511
3.76067
56.753
0.293487
4.82688
57.9918
0.301507
5.39888
59.5964
0.308813
5.47309
61.3696
0.325825
5.13015
63.1324
0.352638
4.55471
64.7345
0.355271
3.87181
66.0627
0.190564
2.22675
66.9978
-0.324971
67.4731
-0.32674
1.1209
30.853
0.0284203
2.19402
31.1303
0.029834
3.16432
31.69
0.0323522
3.96612
32.5399
0.035892
4.51762
33.6851
0.040485
4.71769
35.1164
0.0463227
4.45137
36.7865
0.0536927
3.61897
38.5685
0.0628203
2.21138
40.2003
0.0730211
23.0659
41.2585
0.0783452
81.7529
43.7121
-1.72706
76.6088
49.4619
-1.1895
72.1958
53.0546
-0.401199
68.3909
54.8821
-0.188219
65.2252
55.6463
-0.093853
62.7259
55.8662
-0.0458764
60.8209
55.8613
-0.0206605
59.4033
55.8043
-0.00749011
58.3692
55.7778
-0.000355879
57.6261
55.8103
0.00376751
57.0971
55.9003
0.0064192
56.7206
56.0278
0.00842963
56.4508
56.1599
0.010232
56.2605
56.2549
0.012499
56.1459
56.2635
0.0159345
56.1345
56.1339
0.0216964
56.2922
55.8251
0.0321118
56.7208
55.3363
0.0520979
57.5225
54.7666
0.0932309
29.6392
54.4012
0.184877
2.97688
54.5838
0.298738
4.99939
55.6225
0.324755
6.43156
57.4479
0.334083
7.17202
59.7377
0.343414
7.23594
62.2057
0.363546
6.73219
64.6166
0.394033
5.88295
66.7798
0.396542
4.80691
68.549
0.20974
2.70203
69.7817
-0.332674
70.4217
-0.337218
1.39825
30.3314
0.0313413
2.75373
30.652
0.0328073
4.01418
31.3057
0.0353935
5.11133
32.3166
0.0390052
5.94891
33.7187
0.0436812
6.38776
35.5465
0.0496516
6.23344
37.8098
0.0572703
5.25076
40.4268
0.0668632
3.26952
43.0819
0.0778427
25.5194
45.0171
0.08392
87.5028
48.7221
-1.89337
80.2015
56.1095
-1.40959
74.0233
59.3226
-0.467574
69.1552
59.9414
-0.208551
65.4451
59.4536
-0.0976312
62.7209
58.6336
-0.0431322
60.7639
57.8343
-0.0158559
59.3768
57.193
-0.00169446
58.4017
56.7464
0.00592894
57.7161
56.485
0.0104054
57.2245
56.3779
0.0134586
56.8528
56.3827
0.01587
56.5458
56.4475
0.0182423
56.2691
56.5093
0.0212026
56.0163
56.4896
0.0254326
55.8256
56.2916
0.03211
55.8035
55.8029
0.0437148
56.1511
54.9227
0.0655523
57.1571
53.65
0.110364
29.8218
52.2941
0.211101
4.01562
52.0472
0.338068
6.82482
53.707
0.365617
8.72133
56.4415
0.37692
9.64
59.701
0.38893
9.64688
63.0962
0.412871
8.89539
66.3451
0.448033
7.65213
69.2246
0.452283
6.03961
71.5537
0.247673
3.34205
73.1717
-0.31575
74.0207
-0.340895
1.71885
29.4773
0.0344392
3.40737
29.829
0.0359484
5.02512
30.5525
0.0385644
6.51338
31.6911
0.0421824
7.77678
33.3157
0.0468472
8.65109
35.5309
0.0528272
8.85039
38.4699
0.0605428
7.90587
42.2382
0.0704532
5.20467
46.6775
0.0821767
29.2244
50.6431
0.0892579
94.8902
58.4761
-2.05536
83.4146
67.2745
-1.75312
74.6421
68.1829
-0.543562
68.6674
66.1124
-0.218295
64.6252
63.5851
-0.0900852
61.9217
61.369
-0.0317995
60.1226
59.637
-0.00379781
58.9301
58.3749
0.0104995
58.1404
57.5177
0.0184512
57.609
56.9926
0.0234203
57.2293
56.73
0.0271587
56.9176
56.6632
0.0304624
56.6075
56.7227
0.0339293
56.2494
56.8284
0.0381654
55.8183
56.8761
0.0438218
55.3369
56.7201
0.0520943
54.9234
56.1503
0.0655504
54.8784
54.8776
0.0896429
55.8011
52.589
0.138037
29.5749
49.2828
0.247904
5.6754
47.8308
0.390751
9.55927
50.7179
0.42084
11.9808
54.9091
0.435369
13.0352
59.5221
0.451266
12.8958
64.1181
0.480399
11.7749
68.4204
0.522487
9.98122
72.1967
0.532747
7.65766
75.2316
0.320416
4.19106
77.3434
-0.258368
78.4577
-0.323225
2.0705
28.2607
0.0378859
4.13094
28.6234
0.0394142
6.16366
29.374
0.0420075
8.13799
30.5693
0.0455469
9.99203
32.3122
0.0500826
11.5901
34.782
0.0559179
12.6187
38.2911
0.0635406
12.3452
43.369
0.0735996
9.17025
50.7388
0.0862175
37.0575
60.0832
0.0956779
103.689
85.9646
-2.04518
84.323
87.3733
-2.23914
72.5716
79.8999
-0.576797
66.1401
72.7001
-0.185754
62.4091
67.3712