/*--------------------------------*- C++ -*----------------------------------*\
| =========                 |                                                 |
| \\      /  F ield         | OpenFOAM: The Open Source CFD Toolbox           |
|  \\    /   O peration     | Version:  2.1.0                                 |
|   \\  /    A nd           | Web:      www.OpenFOAM.org                      |
|    \\/     M anipulation  |                                                 |
\*---------------------------------------------------------------------------*/
FoamFile
{
    version     2.0;
    format      ascii;
    class       volScalarField;
    location    "40150";
    object      po;
}
// * * * * * * * * * * * * * * * * * * * * * * * * * * * * * * * * * * * * * //

dimensions      [1 -1 -2 0 0 0 0];

internalField   nonuniform List<scalar> 
8000
(
11272.4
11260.6
11240.9
11217.1
11191.8
11166.2
11141
11116.2
11091.8
11067.6
11043.4
11019.1
10994.6
10969.6
10944.1
10918
10891.3
10863.8
10835.7
10806.9
10777.5
10747.5
10717
10686.1
10655.1
10624
10593.1
10562.8
10533.3
10505.1
10478.4
10453.7
10431.2
10411.3
10394
10379.7
10368.2
10359.7
10353.9
10350.7
11260.6
11250.1
11232.2
11210.2
11186.3
11161.8
11137.5
11113.4
11089.5
11065.7
11041.9
11018
10993.6
10968.9
10943.5
10917.5
10890.9
10863.5
10835.4
10806.6
10777.1
10747
10716.4
10685.4
10654.2
10622.9
10591.7
10561.1
10531.3
10502.6
10475.6
10450.6
10427.9
10407.7
10390.4
10375.9
10364.4
10355.8
10350
10346.8
11240.9
11232.2
11217
11197.6
11176.1
11153.6
11130.8
11107.9
11085.1
11062.2
11039.1
11015.7
10991.8
10967.4
10942.4
10916.6
10890
10862.7
10834.7
10805.9
10776.3
10746.1
10715.3
10684.1
10652.4
10620.7
10589
10557.7
10527.1
10497.8
10470
10444.3
10421.1
10400.6
10383
10368.3
10356.7
10348.1
10342.2
10339
11217.1
11210.2
11197.6
11181.1
11162.3
11142.2
11121.4
11100.3
11078.8
11057.1
11035.1
11012.5
10989.3
10965.4
10940.7
10915.3
10888.9
10861.7
10833.7
10804.9
10775.2
10744.8
10713.8
10682.1
10650
10617.5
10585
10552.7
10521
10490.4
10461.5
10434.8
10410.8
10389.7
10371.7
10356.9
10345.1
10336.4
10330.6
10327.4
11191.8
11186.3
11176.1
11162.3
11146.2
11128.6
11110
11090.8
11071.1
11050.9
11030.1
11008.5
10986.2
10963
10938.8
10913.7
10887.6
10860.5
10832.6
10803.7
10773.9
10743.3
10711.9
10679.7
10646.9
10613.5
10579.9
10546.1
10512.8
10480.5
10449.9
10421.8
10396.8
10375
10356.5
10341.4
10329.6
10320.9
10315
10311.8
11166.2
11161.8
11153.6
11142.2
11128.6
11113.4
11097.1
11080
11062.2
11043.7
11024.4
11004.1
10982.8
10960.3
10936.7
10911.9
10886.1
10859.2
10831.3
10802.4
10772.5
10741.6
10709.8
10677.1
10643.5
10609
10573.9
10538.4
10502.8
10468.1
10435.1
10405
10378.6
10356
10337.1
10321.9
10310
10301.3
10295.5
10292.3
11141
11137.5
11130.8
11121.4
11110
11097.1
11083
11068.1
11052.4
11035.9
11018.3
10999.5
10979.2
10957.6
10934.5
10910.2
10884.7
10858
10830.1
10801.2
10771.1
10740
10707.8
10674.4
10640
10604.3
10567.5
10529.7
10491.2
10453
10416.4
10383.8
10355.8
10332.4
10313.3
10298.1
10286.3
10277.8
10272.1
10268.9
11116.2
11113.4
11107.9
11100.3
11090.8
11080
11068.1
11055.5
11042.1
11027.8
11012.3
10995
10975.9
10955.1
10932.6
10908.7
10883.4
10856.8
10829
10800
10769.9
10738.5
10705.9
10672
10636.7
10599.9
10561.3
10520.9
10478.6
10435.3
10393.1
10357
10327.6
10303.8
10284.9
10269.9
10258.5
10250.3
10244.8
10241.7
11091.8
11089.5
11085.1
11078.8
11071.1
11062.2
11052.4
11042.1
11031.2
11019.6
11006.8
10991.3
10973.3
10953.1
10931.1
10907.5
10882.4
10855.9
10828.1
10799.1
10768.9
10737.3
10704.4
10670.1
10634.1
10596.2
10556
10513
10466.3
10415.5
10362.7
10322.8
10292.8
10269.6
10251.5
10237.4
10226.7
10218.9
10213.7
10210.8
11067.6
11065.7
11062.2
11057.1
11050.9
11043.7
11035.9
11027.8
11019.6
11011.5
11002.7
10988.9
10971.7
10952
10930.2
10906.8
10881.7
10855.3
10827.6
10798.5
10768.2
10736.6
10703.5
10668.9
10632.5
10594
10552.8
10507.8
10457.1
10397
10318.7
10277.8
10250.3
10229.6
10213.4
10200.7
10191
10183.9
10179.1
10176.4
11043.4
11041.9
11039.1
11035.1
11030.1
11024.4
11018.3
11012.3
11006.8
11002.7
11000.1
10984.1
10965.4
10944.5
10921.6
10897
10870.9
10843.3
10814.5
10784.3
10752.8
10719.9
10685.5
10649.4
10611.4
10571
10527.3
10478.5
10420.1
10334.1
10236.1
10218.5
10200.3
10184.3
10170.9
10160.1
10151.7
10145.4
10141.2
10138.7
11019.1
11018
11015.7
11012.5
11008.5
11004.1
10999.5
10995
10991.3
10988.9
10984.1
10958.1
10932.6
10906.3
10878.9
10850.4
10820.6
10789.7
10757.7
10724.3
10689.7
10653.6
10615.9
10576.3
10534.3
10489.2
10439.7
10383.6
10316.4
10229
10168
10158.8
10147.1
10135.5
10125.1
10116.3
10109.2
10103.9
10100.2
10097.9
10994.6
10993.6
10991.8
10989.3
10986.2
10982.8
10979.2
10975.9
10973.3
10971.7
10965.4
10932.6
10901.3
10869.9
10838.1
10805.6
10772.3
10738
10702.8
10666.5
10628.9
10589.9
10549.2
10506.4
10461.2
10412.6
10359.5
10300.2
10232
10152.1
10106.3
10100.8
10093.1
10084.8
10076.8
10069.8
10064.1
10059.7
10056.5
10054.5
10969.6
10968.9
10967.4
10965.4
10963
10960.3
10957.6
10955.1
10953.1
10952
10944.5
10906.3
10869.9
10834
10798
10761.7
10724.9
10687.4
10649.1
10609.9
10569.5
10527.8
10484.4
10439.1
10391.3
10340.4
10285.5
10225.6
10159.5
10086.8
10047.7
10044.1
10038.8
10032.8
10026.8
10021.3
10016.7
10013.1
10010.3
10008.5
10944.1
10943.5
10942.4
10940.7
10938.8
10936.7
10934.5
10932.6
10931.1
10930.2
10921.6
10878.9
10838.1
10798
10758.1
10718.2
10678.1
10637.5
10596.3
10554.4
10511.4
10467.2
10421.6
10374.1
10324.4
10272
10216.4
10156.9
10093.3
10026
9990.84
9988.23
9984.41
9979.94
9975.36
9971.08
9967.39
9964.4
9962.08
9960.45
10918
10917.5
10916.6
10915.3
10913.7
10911.9
10910.2
10908.7
10907.5
10906.8
10897
10850.4
10805.6
10761.7
10718.2
10675
10631.7
10588.2
10544.3
10499.7
10454.4
10408.1
10360.4
10311.2
10260.1
10206.8
10150.9
10092.3
10030.9
9967.33
9934.69
9932.69
9929.8
9926.38
9922.81
9919.41
9916.42
9913.93
9911.9
9910.41
10891.3
10890.9
10890
10888.9
10887.6
10886.1
10884.7
10883.4
10882.4
10881.7
10870.9
10820.6
10772.3
10724.9
10678.1
10631.7
10585.5
10539.2
10492.8
10445.9
10398.5
10350.2
10300.8
10250.2
10198
10144.1
10088.2
10030.4
9970.73
9909.78
9878.79
9877.16
9874.86
9872.13
9869.24
9866.46
9863.96
9861.84
9860.01
9858.61
10863.8
10863.5
10862.7
10861.7
10860.5
10859.2
10858
10856.8
10855.9
10855.3
10843.3
10789.7
10738
10687.4
10637.5
10588.2
10539.2
10490.5
10441.7
10392.7
10343.3
10293.3
10242.5
10190.7
10137.6
10083.2
10027.4
9970.24
9911.87
9852.74
9822.84
9821.44
9819.5
9817.19
9814.73
9812.34
9810.16
9808.25
9806.53
9805.2
10835.7
10835.4
10834.7
10833.7
10832.6
10831.3
10830.1
10829
10828.1
10827.6
10814.5
10757.7
10702.8
10649.1
10596.3
10544.3
10492.8
10441.7
10390.8
10339.9
10288.8
10237.3
10185.2
10132.3
10078.6
10023.8
9968.06
9911.31
9853.79
9795.86
9766.66
9765.39
9763.64
9761.55
9759.32
9757.12
9755.09
9753.27
9751.56
9750.25
10806.9
10806.6
10805.9
10804.9
10803.7
10802.4
10801.2
10800
10799.1
10798.5
10784.3
10724.3
10666.5
10609.9
10554.4
10499.7
10445.9
10392.7
10339.9
10287.2
10234.6
10181.8
10128.6
10074.9
10020.5
9965.47
9909.66
9853.17
9796.18
9738.97
9710.18
9708.95
9707.25
9705.21
9703.02
9700.83
9698.79
9696.93
9695.14
9693.82
10777.5
10777.1
10776.3
10775.2
10773.9
10772.5
10771.1
10769.9
10768.9
10768.2
10752.8
10689.7
10628.9
10569.5
10511.4
10454.4
10398.5
10343.3
10288.8
10234.6
10180.6
10126.7
10072.5
10018.1
9963.22
9907.84
9851.94
9795.56
9738.83
9681.97
9653.37
9652.11
9650.34
9648.19
9645.84
9643.49
9641.28
9639.24
9637.27
9635.9
10747.5
10747
10746.1
10744.8
10743.3
10741.6
10740
10738.5
10737.3
10736.6
10719.9
10653.6
10589.9
10527.8
10467.2
10408.1
10350.2
10293.3
10237.3
10181.8
10126.7
10071.7
10016.8
9961.74
9906.41
9850.75
9794.72
9738.33
9681.67
9624.88
9596.28
9594.92
9592.94
9590.5
9587.8
9585.09
9582.52
9580.16
9577.92
9576.45
10717
10716.4
10715.3
10713.8
10711.9
10709.8
10707.8
10705.9
10704.4
10703.5
10685.5
10615.9
10549.2
10484.4
10421.6
10360.4
10300.8
10242.5
10185.2
10128.6
10072.6
10016.8
9961.22
9905.63
9849.93
9794.02
9737.86
9681.42
9624.69
9567.77
9539.02
9537.48
9535.13
9532.19
9528.92
9525.61
9522.47
9519.61
9516.98
9515.34
10686.1
10685.4
10684.1
10682.1
10679.7
10677.1
10674.4
10672
10670.1
10668.9
10649.4
10576.3
10506.4
10439.1
10374.1
10311.2
10250.2
10190.7
10132.3
10074.9
10018.1
9961.74
9905.63
9849.64
9793.65
9737.57
9681.32
9624.81
9567.98
9510.81
9481.81
9479.96
9477.05
9473.34
9469.2
9464.99
9461.03
9457.46
9454.29
9452.41
10655.1
10654.2
10652.4
10650
10646.9
10643.5
10640
10636.7
10634.1
10632.5
10611.4
10534.3
10461.2
10391.3
10324.4
10260.1
10198
10137.6
10078.6
10020.5
9963.22
9906.41
9849.93
9793.65
9737.48
9681.31
9625.05
9568.56
9511.68
9454.25
9424.93
9422.64
9418.88
9414.05
9408.65
9403.18
9398.05
9393.49
9389.62
9387.39
10624
10622.9
10620.7
10617.5
10613.5
10609
10604.3
10599.9
10596.2
10594
10571
10489.2
10412.6
10340.4
10272
10206.8
10144.1
10083.2
10023.8
9965.47
9907.84
9850.75
9794.03
9737.58
9681.31
9625.17
9569.03
9512.74
9456.02
9398.5
9368.86
9365.88
9360.88
9354.45
9347.28
9340.04
9333.31
9327.43
9322.62
9319.92
10593.1
10591.7
10589
10585
10579.9
10573.9
10567.5
10561.3
10556
10552.8
10527.3
10439.7
10359.5
10285.5
10216.4
10150.9
10088.2
10027.4
9968.06
9909.66
9851.94
9794.72
9737.87
9681.32
9625.05
9569.03
9513.21
9457.41
9401.25
9344.1
9314.28
9310.26
9303.44
9294.71
9285.07
9275.43
9266.53
9258.88
9252.84
9249.5
10562.8
10561.1
10557.7
10552.7
10546.1
10538.4
10529.7
10520.9
10513
10507.8
10478.5
10383.6
10300.2
10225.6
10156.9
10092.3
10030.4
9970.24
9911.31
9853.17
9795.57
9738.34
9681.42
9624.81
9568.56
9512.74
9457.41
9402.48
9347.6
9291.8
9262.23
9256.55
9246.99
9235.01
9221.98
9209.08
9197.31
9187.33
9179.67
9175.48
10533.3
10531.3
10527.1
10521
10512.8
10502.8
10491.2
10478.6
10466.3
10457.1
10420.1
10316.4
10232
10159.5
10093.3
10030.9
9970.73
9911.87
9853.8
9796.18
9738.84
9681.67
9624.7
9567.98
9511.69
9456.02
9401.26
9347.61
9295.02
9242.52
9214.4
9205.84
9192.08
9175.49
9157.86
9140.66
9125.11
9112.09
9102.32
9097.02
10505.1
10502.6
10497.8
10490.4
10480.5
10468.1
10453
10435.3
10415.5
10397
10334.1
10229
10152.1
10086.8
10026
9967.33
9909.79
9852.74
9795.87
9738.97
9681.98
9624.89
9567.78
9510.81
9454.26
9398.5
9344.1
9291.81
9242.52
9196.74
9173.72
9159.41
9139.13
9116.15
9092.46
9069.7
9049.27
9032.34
9019.83
9013.07
10478.4
10475.6
10470
10461.5
10449.9
10435.1
10416.4
10393.1
10362.7
10318.7
10236.1
10168
10106.3
10047.7
9990.85
9934.7
9878.8
9822.84
9766.67
9710.18
9653.37
9596.28
9539.03
9481.81
9424.94
9368.86
9314.28
9262.23
9214.4
9173.72
9146.05
9118.03
9088
9056.67
9025.36
8995.61
8969.01
8947.05
8930.99
8922.33
10453.7
10450.6
10444.3
10434.8
10421.8
10405
10383.8
10357
10322.8
10277.8
10218.5
10158.8
10100.8
10044.1
9988.24
9932.69
9877.17
9821.44
9765.4
9708.96
9652.12
9594.93
9537.49
9479.97
9422.64
9365.89
9310.26
9256.56
9205.84
9159.41
9118.03
9077.81
9037.25
8996.37
8956.05
8917.79
8883.48
8855.08
8834.42
8823.28
10431.2
10427.9
10421.1
10410.8
10396.8
10378.6
10355.8
10327.6
10292.8
10250.3
10200.3
10147.1
10093.1
10038.8
9984.41
9929.8
9874.86
9819.5
9763.64
9707.26
9650.34
9592.95
9535.14
9477.05
9418.88
9360.89
9303.44
9247
9192.09
9139.13
9088
9037.25
8986.15
8934.85
8884.21
8835.82
8791.96
8755.34
8728.62
8714.2
10411.3
10407.7
10400.6
10389.7
10375
10356
10332.4
10303.8
10269.6
10229.6
10184.3
10135.5
10084.8
10032.8
9979.94
9926.38
9872.13
9817.19
9761.56
9705.22
9648.19
9590.5
9532.19
9473.34
9414.05
9354.45
9294.72
9235.02
9175.49
9116.15
9056.67
8996.37
8934.85
8872.4
8810.08
8749.74
8694.15
8646.97
8612.21
8593.39
10394
10390.4
10383
10371.7
10356.5
10337.1
10313.3
10284.9
10251.5
10213.4
10170.9
10125.1
10076.8
10026.8
9975.36
9922.81
9869.24
9814.74
9759.32
9703.02
9645.84
9587.81
9528.92
9469.2
9408.65
9347.28
9285.08
9221.98
9157.86
9092.46
9025.36
8956.05
8884.21
8810.08
8734.78
8660.46
8590.56
8529.91
8484.42
8459.62
10379.7
10375.9
10368.3
10356.9
10341.4
10321.9
10298.1
10269.9
10237.4
10200.7
10160.1
10116.3
10069.8
10021.3
9971.09
9919.41
9866.46
9812.34
9757.12
9700.84
9643.49
9585.09
9525.61
9465
9403.18
9340.05
9275.43
9209.08
9140.66
9069.7
8995.61
8917.79
8835.82
8749.74
8660.46
8570.25
8483.21
8405.65
8345.99
8313.01
10368.2
10364.4
10356.7
10345.1
10329.6
10310
10286.3
10258.5
10226.7
10191
10151.7
10109.2
10064.1
10016.7
9967.39
9916.42
9863.97
9810.17
9755.1
9698.8
9641.28
9582.53
9522.48
9461.03
9398.05
9333.31
9266.53
9197.31
9125.11
9049.28
8969.01
8883.48
8791.96
8694.15
8590.56
8483.21
8376.6
8278.59
8200.81
8156.83
10359.7
10355.8
10348.1
10336.4
10320.9
10301.3
10277.8
10250.3
10218.9
10183.9
10145.4
10103.9
10059.7
10013.1
9964.41
9913.94
9861.84
9808.26
9753.28
9696.94
9639.24
9580.17
9519.62
9457.46
9393.5
9327.43
9258.88
9187.33
9112.1
9032.34
8947.05
8855.08
8755.34
8646.97
8529.91
8405.65
8278.59
8157.81
8058.51
8000.63
10353.9
10350
10342.3
10330.6
10315
10295.5
10272.1
10244.8
10213.7
10179.1
10141.2
10100.2
10056.5
10010.3
9962.08
9911.91
9860.01
9806.53
9751.56
9695.14
9637.28
9577.92
9516.98
9454.3
9389.62
9322.63
9252.84
9179.67
9102.33
9019.83
8931
8834.42
8728.62
8612.21
8484.42
8345.99
8200.81
8058.51
7937.33
7864.18
10350.7
10346.8
10339
10327.4
10311.8
10292.3
10268.9
10241.7
10210.8
10176.4
10138.7
10098
10054.5
10008.6
9960.46
9910.42
9858.62
9805.2
9750.25
9693.82
9635.91
9576.45
9515.35
9452.42
9387.4
9319.92
9249.5
9175.48
9097.02
9013.07
8922.33
8823.28
8714.2
8593.4
8459.62
8313.01
8156.83
8000.63
7864.18
7779.36
11292.6
11275.8
11250.7
11223
11195.3
11168.3
11142.2
11117
11092.2
11067.9
11043.6
11019.3
10994.7
10969.7
10944.1
10918
10891.3
10863.8
10835.7
10806.9
10777.5
10747.5
10717
10686.1
10655
10624
10593.1
10562.8
10533.3
10505
10478.3
10453.6
10431.1
10411.2
10394
10379.6
10368.1
10359.5
10353.8
10350.9
11275.8
11262
11240.3
11215.2
11189.3
11163.7
11138.6
11114.1
11089.9
11066
11042.1
11018.1
10993.7
10968.9
10943.5
10917.5
10890.9
10863.5
10835.4
10806.6
10777.1
10747
10716.4
10685.4
10654.2
10622.8
10591.7
10561.1
10531.2
10502.6
10475.6
10450.5
10427.8
10407.7
10390.3
10375.8
10364.3
10355.7
10349.9
10347
11250.7
11240.3
11222.7
11201.4
11178.5
11155.1
11131.7
11108.5
11085.5
11062.5
11039.3
11015.8
10991.9
10967.5
10942.4
10916.6
10890.1
10862.7
10834.7
10805.8
10776.3
10746.1
10715.3
10684
10652.4
10620.6
10589
10557.6
10527.1
10497.7
10470
10444.3
10421
10400.5
10382.9
10368.2
10356.6
10347.9
10342.2
10339.2
11223
11215.2
11201.4
11183.8
11164.1
11143.4
11122.2
11100.8
11079.2
11057.4
11035.2
11012.6
10989.4
10965.5
10940.8
10915.3
10888.9
10861.7
10833.7
10804.9
10775.2
10744.8
10713.8
10682.1
10649.9
10617.5
10584.9
10552.6
10520.9
10490.3
10461.4
10434.8
10410.7
10389.6
10371.6
10356.7
10345
10336.3
10330.5
10327.5
11195.3
11189.3
11178.5
11164.1
11147.5
11129.5
11110.6
11091.2
11071.4
11051.1
11030.2
11008.6
10986.3
10963
10938.8
10913.7
10887.6
10860.5
10832.6
10803.7
10773.9
10743.3
10711.9
10679.7
10646.9
10613.5
10579.8
10546.1
10512.8
10480.5
10449.9
10421.8
10396.7
10374.9
10356.4
10341.3
10329.4
10320.7
10314.9
10312
11168.3
11163.7
11155.1
11143.4
11129.5
11114
11097.5
11080.3
11062.4
11043.9
11024.5
11004.2
10982.8
10960.3
10936.7
10911.9
10886.1
10859.2
10831.3
10802.4
10772.5
10741.6
10709.8
10677
10643.4
10609
10573.9
10538.3
10502.8
10468
10435
10405
10378.5
10355.9
10337
10321.8
10309.9
10301.1
10295.4
10292.5
11142.2
11138.6
11131.7
11122.2
11110.6
11097.5
11083.4
11068.4
11052.6
11036
11018.4
10999.5
10979.3
10957.6
10934.5
10910.2
10884.7
10857.9
10830.1
10801.1
10771.1
10740
10707.7
10674.4
10639.9
10604.3
10567.5
10529.7
10491.2
10452.9
10416.3
10383.7
10355.7
10332.4
10313.2
10298
10286.2
10277.6
10272
10269.1
11117
11114.1
11108.5
11100.8
11091.2
11080.3
11068.4
11055.6
11042.2
11027.9
11012.4
10995.1
10976
10955.1
10932.6
10908.7
10883.4
10856.8
10829
10800
10769.8
10738.5
10705.9
10672
10636.7
10599.8
10561.2
10520.8
10478.6
10435.2
10393
10356.9
10327.5
10303.7
10284.8
10269.8
10258.4
10250.1
10244.7
10241.9
11092.2
11089.9
11085.5
11079.2
11071.4
11062.4
11052.6
11042.2
11031.2
11019.7
11006.8
10991.3
10973.3
10953.1
10931.1
10907.5
10882.4
10855.9
10828.1
10799.1
10768.8
10737.3
10704.4
10670
10634.1
10596.2
10556
10512.9
10466.2
10415.5
10362.6
10322.7
10292.7
10269.5
10251.4
10237.3
10226.5
10218.8
10213.7
10211
11067.9
11066
11062.4
11057.4
11051.1
11043.9
11036
11027.9
11019.7
11011.5
11002.8
10988.9
10971.7
10952
10930.2
10906.7
10881.7
10855.3
10827.5
10798.5
10768.2
10736.5
10703.4
10668.8
10632.5
10594
10552.7
10507.7
10457
10396.9
10318.6
10277.7
10250.2
10229.5
10213.3
10200.5
10190.8
10183.7
10179.1
10176.6
11043.6
11042.1
11039.3
11035.2
11030.2
11024.5
11018.4
11012.4
11006.8
11002.8
11000.4
10984.5
10965.9
10945
10922.2
10897.7
10871.6
10844.2
10815.4
10785.3
10753.9
10721.1
10686.8
10650.9
10613
10572.7
10529.1
10480.6
10422.1
10335.1
10236
10218.4
10200.2
10184.2
10170.8
10160
10151.5
10145.3
10141.1
10138.9
11019.3
11018.1
11015.8
11012.6
11008.6
11004.2
10999.5
10995.1
10991.3
10988.9
10984.4
10958.4
10932.9
10906.7
10879.3
10850.8
10821.1
10790.3
10758.3
10725
10690.4
10654.4
10616.8
10577.3
10535.4
10490.4
10441.2
10385.4
10318.6
10231.3
10167.9
10158.7
10147
10135.4
10125
10116.1
10109
10103.7
10100.2
10098.2
10994.7
10993.7
10991.9
10989.4
10986.3
10982.8
10979.3
10976
10973.3
10971.7
10965.9
10932.9
10901.4
10870.1
10838.3
10805.8
10772.5
10738.2
10703
10666.7
10629.1
10590.1
10549.4
10506.8
10461.5
10413
10360
10300.8
10232.6
10152.5
10106.2
10100.7
10093
10084.6
10076.7
10069.7
10063.9
10059.5
10056.5
10054.7
10969.7
10968.9
10967.5
10965.5
10963
10960.3
10957.6
10955.1
10953.1
10952
10945
10906.7
10870.1
10834.1
10798.1
10761.8
10725
10687.5
10649.2
10610
10569.6
10527.9
10484.6
10439.3
10391.5
10340.6
10285.7
10225.8
10159.7
10086.8
10047.7
10044
10038.7
10032.6
10026.6
10021.2
10016.5
10012.9
10010.4
10008.8
10944.1
10943.5
10942.4
10940.8
10938.8
10936.7
10934.5
10932.6
10931.1
10930.2
10922.2
10879.3
10838.3
10798.1
10758.2
10718.3
10678.1
10637.6
10596.4
10554.4
10511.4
10467.3
10421.6
10374.2
10324.5
10272.1
10216.5
10157
10093.4
10025.9
9990.74
9988.1
9984.27
9979.8
9975.21
9970.92
9967.21
9964.25
9962.1
9960.75
10918
10917.5
10916.6
10915.3
10913.7
10911.9
10910.2
10908.7
10907.5
10906.7
10897.7
10850.8
10805.8
10761.8
10718.3
10675
10631.7
10588.2
10544.3
10499.8
10454.5
10408.1
10360.5
10311.2
10260.2
10206.8
10151
10092.3
10030.9
9967.27
9934.57
9932.54
9929.64
9926.22
9922.64
9919.23
9916.23
9913.78
9911.95
9910.72
10891.3
10890.9
10890.1
10888.9
10887.6
10886.1
10884.7
10883.4
10882.4
10881.7
10871.6
10821.1
10772.5
10725
10678.1
10631.7
10585.5
10539.2
10492.8
10445.9
10398.5
10350.2
10300.8
10250.2
10198
10144.1
10088.2
10030.4
9970.7
9909.71
9878.66
9877
9874.69
9871.96
9869.07
9866.27
9863.76
9861.68
9860.07
9858.93
10863.8
10863.5
10862.7
10861.7
10860.5
10859.2
10857.9
10856.8
10855.9
10855.3
10844.2
10790.3
10738.2
10687.5
10637.6
10588.2
10539.2
10490.5
10441.7
10392.7
10343.3
10293.3
10242.5
10190.7
10137.6
10083.2
10027.4
9970.23
9911.83
9852.65
9822.69
9821.27
9819.32
9817.01
9814.55
9812.14
9809.95
9808.09
9806.62
9805.51
10835.7
10835.4
10834.7
10833.7
10832.6
10831.3
10830.1
10829
10828.1
10827.5
10815.4
10758.3
10703
10649.2
10596.4
10544.3
10492.8
10441.7
10390.8
10339.9
10288.8
10237.3
10185.2
10132.3
10078.6
10023.8
9968.05
9911.29
9853.75
9795.76
9766.5
9765.21
9763.45
9761.36
9759.12
9756.9
9754.87
9753.11
9751.67
9750.56
10806.9
10806.6
10805.8
10804.9
10803.7
10802.4
10801.1
10800
10799.1
10798.5
10785.3
10725
10666.7
10610
10554.4
10499.8
10445.9
10392.7
10339.9
10287.2
10234.6
10181.8
10128.6
10074.9
10020.5
9965.46
9909.65
9853.15
9796.13
9738.86
9710
9708.75
9707.05
9705.01
9702.8
9700.6
9698.55
9696.77
9695.29
9694.13
10777.5
10777.1
10776.3
10775.2
10773.9
10772.5
10771.1
10769.8
10768.8
10768.2
10753.9
10690.4
10629.1
10569.6
10511.4
10454.5
10398.5
10343.3
10288.8
10234.6
10180.7
10126.7
10072.6
10018.1
9963.22
9907.84
9851.93
9795.54
9738.78
9681.86
9653.18
9651.9
9650.12
9647.96
9645.61
9643.24
9641.02
9639.07
9637.46
9636.21
10747.5
10747
10746.1
10744.8
10743.3
10741.6
10740
10738.5
10737.3
10736.5
10721.1
10654.4
10590.1
10527.9
10467.3
10408.1
10350.2
10293.3
10237.3
10181.8
10126.7
10071.7
10016.8
9961.73
9906.4
9850.74
9794.7
9738.3
9681.61
9624.76
9596.07
9594.69
9592.71
9590.26
9587.55
9584.82
9582.25
9579.99
9578.15
9576.75
10717
10716.4
10715.3
10713.8
10711.9
10709.8
10707.7
10705.9
10704.4
10703.4
10686.8
10616.8
10549.4
10484.6
10421.6
10360.5
10300.8
10242.5
10185.2
10128.6
10072.6
10016.8
9961.22
9905.63
9849.92
9794.01
9737.85
9681.38
9624.63
9567.64
9538.8
9537.23
9534.88
9531.93
9528.65
9525.31
9522.18
9519.44
9517.25
9515.65
10686.1
10685.4
10684
10682.1
10679.7
10677
10674.4
10672
10670
10668.8
10650.9
10577.3
10506.8
10439.3
10374.2
10311.3
10250.2
10190.7
10132.3
10074.9
10018.1
9961.74
9905.63
9849.64
9793.65
9737.56
9681.3
9624.77
9567.91
9510.66
9481.56
9479.7
9476.77
9473.06
9468.9
9464.67
9460.71
9457.28
9454.59
9452.73
10655
10654.2
10652.4
10649.9
10646.9
10643.4
10639.9
10636.7
10634.1
10632.5
10613
10535.4
10461.5
10391.5
10324.5
10260.2
10198
10137.6
10078.6
10020.5
9963.22
9906.4
9849.92
9793.65
9737.47
9681.3
9625.02
9568.52
9511.6
9454.09
9424.66
9422.34
9418.57
9413.74
9408.32
9402.82
9397.69
9393.3
9389.94
9387.72
10624
10622.8
10620.6
10617.5
10613.5
10609
10604.3
10599.8
10596.2
10594
10572.7
10490.4
10413
10340.6
10272.1
10206.8
10144.1
10083.2
10023.8
9965.47
9907.84
9850.74
9794.02
9737.56
9681.3
9625.15
9569
9512.69
9455.93
9398.31
9368.56
9365.56
9360.55
9354.11
9346.92
9339.65
9332.92
9327.22
9322.95
9320.26
10593.1
10591.7
10589
10584.9
10579.8
10573.9
10567.5
10561.2
10556
10552.7
10529.1
10441.2
10360
10285.7
10216.5
10151
10088.2
10027.4
9968.06
9909.65
9851.93
9794.7
9737.85
9681.3
9625.03
9569
9513.17
9457.34
9401.14
9343.89
9313.94
9309.89
9303.06
9294.33
9284.66
9274.98
9266.08
9258.63
9253.16
9249.84
10562.8
10561.1
10557.6
10552.6
10546.1
10538.3
10529.7
10520.8
10512.9
10507.7
10480.6
10385.4
10300.8
10225.8
10157
10092.3
10030.4
9970.23
9911.3
9853.15
9795.54
9738.31
9681.38
9624.77
9568.52
9512.69
9457.34
9402.39
9347.47
9291.56
9261.84
9256.13
9246.56
9234.56
9221.5
9208.56
9196.77
9187.01
9179.93
9175.8
10533.3
10531.2
10527.1
10520.9
10512.8
10502.8
10491.2
10478.6
10466.2
10457
10422.1
10318.6
10232.6
10159.7
10093.4
10030.9
9970.71
9911.83
9853.75
9796.13
9738.78
9681.61
9624.63
9567.91
9511.6
9455.93
9401.15
9347.47
9294.83
9242.22
9213.94
9205.34
9191.57
9174.95
9157.28
9140.03
9124.45
9111.64
9102.45
9097.27
10505
10502.6
10497.7
10490.3
10480.5
10468
10452.9
10435.2
10415.5
10396.9
10335.1
10231.3
10152.5
10086.8
10025.9
9967.27
9909.71
9852.66
9795.77
9738.86
9681.86
9624.76
9567.64
9510.66
9454.09
9398.32
9343.89
9291.56
9242.22
9196.33
9173.17
9158.81
9138.5
9115.48
9091.74
9068.9
9048.42
9031.65
9019.7
9013.14
10478.3
10475.6
10470
10461.5
10449.9
10435
10416.3
10393
10362.6
10318.6
10236
10167.9
10106.2
10047.7
9990.74
9934.58
9878.66
9822.7
9766.51
9710.01
9653.18
9596.07
9538.8
9481.57
9424.67
9368.56
9313.94
9261.84
9213.94
9173.17
9145.43
9117.33
9087.23
9055.82
9024.42
8994.54
8967.82
8945.93
8930.38
8922
10453.6
10450.5
10444.3
10434.8
10421.8
10405
10383.7
10356.9
10322.7
10277.7
10218.4
10158.7
10100.7
10044
9988.11
9932.55
9877.01
9821.27
9765.21
9708.76
9651.91
9594.7
9537.24
9479.7
9422.35
9365.56
9309.9
9256.13
9205.34
9158.81
9117.33
9077.02
9036.34
8995.29
8954.78
8916.28
8881.72
8853.23
8832.9
8822.08
10431.1
10427.8
10421
10410.7
10396.7
10378.5
10355.7
10327.5
10292.7
10250.2
10200.2
10147
10093
10038.7
9984.27
9929.65
9874.7
9819.32
9763.45
9707.05
9650.13
9592.71
9534.88
9476.78
9418.58
9360.55
9303.06
9246.56
9191.57
9138.5
9087.23
9036.34
8985.05
8933.47
8882.46
8833.6
8789.22
8752.16
8725.44
8711.26
10411.2
10407.7
10400.5
10389.6
10374.9
10355.9
10332.4
10303.7
10269.6
10229.5
10184.2
10135.4
10084.6
10032.7
9979.8
9926.22
9871.96
9817.01
9761.36
9705.01
9647.97
9590.26
9531.93
9473.06
9413.74
9354.11
9294.33
9234.56
9174.95
9115.48
9055.83
8995.29
8933.47
8870.59
8807.61
8746.37
8689.7
8641.44
8605.99
8587.08
10394
10390.3
10382.9
10371.6
10356.4
10337
10313.2
10284.8
10251.4
10213.3
10170.8
10125
10076.7
10026.6
9975.21
9922.65
9869.07
9814.55
9759.12
9702.8
9645.61
9587.56
9528.65
9468.91
9408.33
9346.92
9284.66
9221.5
9157.28
9091.74
9024.42
8954.78
8882.46
8807.61
8731.21
8655.28
8583.25
8520.22
8472.67
8446.9
10379.6
10375.8
10368.2
10356.8
10341.3
10321.8
10298
10269.8
10237.3
10200.6
10160
10116.1
10069.7
10021.2
9970.92
9919.24
9866.27
9812.14
9756.91
9700.6
9643.25
9584.82
9525.32
9464.68
9402.83
9339.65
9274.98
9208.56
9140.03
9068.9
8994.54
8916.28
8833.6
8746.37
8655.28
8562.28
8471.28
8388.85
8324.4
8288.47
10368.1
10364.3
10356.6
10345
10329.4
10309.9
10286.2
10258.4
10226.5
10190.8
10151.5
10109.1
10063.9
10016.5
9967.21
9916.23
9863.77
9809.96
9754.87
9698.56
9641.03
9582.25
9522.18
9460.71
9397.69
9332.92
9266.08
9196.78
9124.46
9048.42
8967.82
8881.72
8789.22
8689.7
8583.25
8471.28
8357.69
8250.38
8162.53
8111.48
10359.5
10355.7
10347.9
10336.3
10320.7
10301.2
10277.6
10250.1
10218.8
10183.7
10145.3
10103.8
10059.5
10012.9
9964.25
9913.78
9861.68
9808.1
9753.11
9696.77
9639.08
9579.99
9519.44
9457.28
9393.3
9327.22
9258.64
9187.01
9111.64
9031.65
8945.94
8853.23
8752.16
8641.44
8520.22
8388.85
8250.38
8113.18
7994.44
7921.45
10353.8
10350
10342.2
10330.5
10314.9
10295.4
10272
10244.7
10213.7
10179.1
10141.1
10100.2
10056.5
10010.4
9962.11
9911.95
9860.08
9806.62
9751.68
9695.29
9637.47
9578.15
9517.25
9454.6
9389.95
9322.96
9253.16
9179.93
9102.46
9019.7
8930.38
8832.9
8725.44
8605.99
8472.67
8324.4
8162.53
7994.44
7839.95
7738.22
10350.9
10347
10339.2
10327.5
10312
10292.5
10269.1
10241.9
10211
10176.6
10138.9
10098.2
10054.7
10008.8
9960.75
9910.72
9858.93
9805.52
9750.57
9694.13
9636.21
9576.76
9515.66
9452.73
9387.72
9320.26
9249.84
9175.8
9097.28
9013.15
8922
8822.08
8711.27
8587.09
8446.9
8288.47
8111.48
7921.45
7738.22
7609.4
11344.2
11309.8
11270.1
11233.7
11201.2
11171.7
11144.2
11118.1
11093
11068.4
11043.9
11019.5
10994.8
10969.8
10944.2
10918.1
10891.3
10863.9
10835.7
10806.9
10777.5
10747.5
10717
10686.1
10655
10623.9
10593.1
10562.7
10533.2
10505
10478.3
10453.6
10431.1
10411.1
10393.9
10379.4
10368
10359.4
10353.8
10351
11309.8
11286.5
11255.5
11224.1
11194.5
11166.7
11140.4
11115.2
11090.6
11066.5
11042.4
11018.3
10993.9
10969
10943.6
10917.6
10890.9
10863.5
10835.4
10806.6
10777.1
10747
10716.4
10685.4
10654.1
10622.8
10591.7
10561
10531.2
10502.5
10475.5
10450.5
10427.7
10407.6
10390.2
10375.7
10364.1
10355.6
10349.9
10347.1
11270.1
11255.5
11233.1
11207.9
11182.5
11157.5
11133.2
11109.5
11086.1
11062.9
11039.6
11016
10992.1
10967.6
10942.4
10916.6
10890.1
10862.8
10834.7
10805.8
10776.3
10746.1
10715.3
10684
10652.4
10620.6
10588.9
10557.6
10527
10497.7
10469.9
10444.2
10421
10400.4
10382.8
10368.1
10356.4
10347.8
10342.2
10339.3
11233.7
11224.1
11207.9
11188.2
11167
11145.2
11123.4
11101.5
11079.7
11057.7
11035.5
11012.8
10989.5
10965.5
10940.8
10915.3
10888.9
10861.7
10833.7
10804.8
10775.2
10744.8
10713.7
10682
10649.9
10617.4
10584.9
10552.6
10520.9
10490.3
10461.4
10434.7
10410.7
10389.6
10371.5
10356.6
10344.9
10336.2
10330.5
10327.6
11201.2
11194.5
11182.5
11167
11149.5
11130.8
11111.5
11091.8
11071.8
11051.4
11030.4
11008.8
10986.4
10963.1
10938.8
10913.7
10887.6
10860.5
10832.5
10803.7
10773.9
10743.3
10711.8
10679.7
10646.8
10613.5
10579.8
10546
10512.7
10480.4
10449.8
10421.7
10396.6
10374.8
10356.3
10341.2
10329.3
10320.6
10314.9
10312.1
11171.7
11166.7
11157.5
11145.2
11130.8
11115
11098.2
11080.8
11062.7
11044.1
11024.7
11004.3
10982.9
10960.3
10936.7
10911.9
10886.1
10859.2
10831.3
10802.4
10772.5
10741.6
10709.8
10677
10643.4
10608.9
10573.8
10538.2
10502.7
10467.9
10434.9
10404.9
10378.4
10355.8
10336.9
10321.6
10309.7
10301
10295.4
10292.6
11144.2
11140.4
11133.2
11123.4
11111.5
11098.2
11083.9
11068.7
11052.8
11036.2
11018.5
10999.6
10979.3
10957.6
10934.6
10910.2
10884.7
10857.9
10830.1
10801.1
10771
10739.9
10707.7
10674.3
10639.8
10604.2
10567.4
10529.6
10491.1
10452.8
10416.3
10383.6
10355.6
10332.3
10313.1
10297.8
10286
10277.5
10272
10269.2
11118.1
11115.2
11109.5
11101.5
11091.8
11080.8
11068.7
11055.9
11042.4
11028
11012.4
10995.1
10976
10955.1
10932.6
10908.7
10883.4
10856.8
10829
10800
10769.8
10738.4
10705.8
10671.9
10636.6
10599.7
10561.1
10520.7
10478.5
10435.1
10392.9
10356.8
10327.4
10303.6
10284.6
10269.7
10258.3
10250
10244.7
10242
11093
11090.6
11086.1
11079.7
11071.8
11062.7
11052.8
11042.4
11031.4
11019.8
11006.9
10991.4
10973.3
10953.1
10931.1
10907.5
10882.3
10855.8
10828.1
10799
10768.8
10737.2
10704.3
10670
10634
10596.1
10555.9
10512.8
10466.1
10415.3
10362.5
10322.6
10292.6
10269.4
10251.3
10237.2
10226.4
10218.7
10213.7
10211.1
11068.4
11066.5
11062.9
11057.7
11051.4
11044.1
11036.2
11028
11019.8
11011.6
11002.8
10989
10971.7
10952
10930.2
10906.7
10881.7
10855.3
10827.5
10798.4
10768.1
10736.4
10703.4
10668.8
10632.4
10593.9
10552.6
10507.6
10456.9
10396.8
10318.4
10277.6
10250.1
10229.4
10213.1
10200.4
10190.7
10183.6
10179.1
10176.7
11043.9
11042.4
11039.6
11035.5
11030.4
11024.7
11018.5
11012.4
11006.9
11002.8
11000.6
10984.7
10966.2
10945.4
10922.6
10898.1
10872.2
10844.8
10816
10786
10754.6
10721.9
10687.7
10651.9
10614.1
10573.9
10530.5
10482
10423.5
10335.8
10235.9
10218.2
10200
10184
10170.7
10159.8
10151.4
10145.2
10141.1
10139.1
11019.5
11018.3
11016
11012.8
11008.8
11004.3
10999.6
10995.1
10991.4
10989
10984.7
10958.7
10933.2
10907
10879.7
10851.3
10821.6
10790.9
10758.9
10725.7
10691.2
10655.2
10617.7
10578.3
10536.5
10491.7
10442.7
10387.2
10320.7
10233.2
10167.8
10158.6
10146.9
10135.3
10124.8
10116
10108.9
10103.6
10100.2
10098.3
10994.8
10993.9
10992.1
10989.5
10986.4
10982.9
10979.3
10976
10973.3
10971.7
10966.2
10933.2
10901.6
10870.3
10838.4
10806
10772.7
10738.5
10703.3
10667
10629.4
10590.5
10549.9
10507.2
10462
10413.6
10360.7
10301.5
10233.4
10152.9
10106.1
10100.6
10092.8
10084.5
10076.5
10069.5
10063.8
10059.4
10056.5
10054.9
10969.8
10969
10967.6
10965.5
10963.1
10960.3
10957.6