/*--------------------------------*- C++ -*----------------------------------*\
| =========                 |                                                 |
| \\      /  F ield         | OpenFOAM: The Open Source CFD Toolbox           |
|  \\    /   O peration     | Version:  2.1.0                                 |
|   \\  /    A nd           | Web:      www.OpenFOAM.org                      |
|    \\/     M anipulation  |                                                 |
\*---------------------------------------------------------------------------*/
FoamFile
{
    version     2.0;
    format      ascii;
    class       volScalarField;
    location    "40150";
    object      so;
}
// * * * * * * * * * * * * * * * * * * * * * * * * * * * * * * * * * * * * * //

dimensions      [0 0 0 0 0 0 0];

internalField   nonuniform List<scalar> 
8000
(
0.259179
0.270923
0.285944
0.3023
0.318802
0.334843
0.350132
0.364538
0.378023
0.390596
0.402297
0.413188
0.423335
0.432793
0.441618
0.449867
0.457597
0.46486
0.471707
0.478184
0.48434
0.49022
0.495867
0.501324
0.506637
0.511851
0.517017
0.522197
0.527458
0.532889
0.538598
0.544731
0.55149
0.559181
0.568318
0.579883
0.596042
0.62214
0.671088
0.753037
0.270922
0.281763
0.295553
0.310648
0.326031
0.341136
0.355668
0.369476
0.382491
0.394698
0.406116
0.41679
0.426764
0.43608
0.444787
0.452934
0.460574
0.467757
0.474528
0.480933
0.487016
0.492821
0.498387
0.503755
0.508964
0.51406
0.519091
0.524116
0.529205
0.534449
0.539962
0.545896
0.55246
0.559967
0.568935
0.58035
0.596388
0.622417
0.671404
0.753336
0.285943
0.295553
0.3078
0.321358
0.335375
0.349335
0.362935
0.376
0.388432
0.400186
0.411257
0.421659
0.431411
0.44054
0.449086
0.457091
0.464603
0.471666
0.478322
0.484613
0.490581
0.496264
0.501697
0.506915
0.511955
0.516856
0.521665
0.526442
0.53126
0.536217
0.54144
0.547095
0.553401
0.560678
0.56945
0.580702
0.596615
0.622573
0.671584
0.753517
0.302299
0.310648
0.321358
0.333389
0.34603
0.358816
0.37145
0.383739
0.395562
0.406847
0.417557
0.42767
0.437179
0.446098
0.454457
0.462293
0.469649
0.476563
0.483074
0.489222
0.495043
0.500569
0.505829
0.510853
0.515668
0.520309
0.524819
0.529257
0.533703
0.538267
0.543097
0.54838
0.554355
0.561352
0.569896
0.580972
0.596758
0.62265
0.671689
0.753644
0.318801
0.326031
0.335375
0.34603
0.357409
0.369102
0.380829
0.392392
0.403653
0.414514
0.424897
0.434741
0.444014
0.45272
0.460883
0.468537
0.475719
0.482465
0.488814
0.494802
0.500458
0.505808
0.510873
0.515672
0.520225
0.524556
0.5287
0.532711
0.536677
0.540725
0.545035
0.549833
0.555387
0.562041
0.570321
0.581206
0.596868
0.62271
0.671804
0.753799
0.334843
0.341136
0.349334
0.358816
0.369102
0.379843
0.390781
0.401728
0.412538
0.423078
0.433217
0.44285
0.451923
0.460433
0.468405
0.475874
0.482875
0.489449
0.495633
0.501457
0.506947
0.512119
0.516986
0.521555
0.525831
0.529822
0.533547
0.537049
0.540415
0.543796
0.547419
0.55158
0.556594
0.562825
0.570795
0.581472
0.597015
0.622835
0.672034
0.754079
0.350131
0.355668
0.362935
0.37145
0.380829
0.390781
0.401087
0.411578
0.422102
0.432489
0.442539
0.452069
0.461007
0.469356
0.477155
0.484444
0.491272
0.497682
0.503711
0.509385
0.514726
0.519742
0.524435
0.528798
0.532817
0.536474
0.539757
0.542682
0.545317
0.54783
0.550521
0.553822
0.558126
0.563819
0.571415
0.581856
0.597286
0.623124
0.672505
0.754597
0.364538
0.369476
0.376
0.38374
0.392392
0.401728
0.411578
0.421805
0.432271
0.442785
0.453042
0.462655
0.471554
0.479792
0.48744
0.494569
0.501242
0.50751
0.513411
0.51897
0.524203
0.529114
0.533694
0.53792
0.541755
0.545143
0.548024
0.550346
0.552118
0.553487
0.554845
0.556911
0.560221
0.565194
0.572311
0.582472
0.597789
0.623691
0.673355
0.755468
0.378023
0.382491
0.388432
0.395563
0.403653
0.412538
0.422102
0.432271
0.44299
0.454153
0.465335
0.475334
0.484313
0.492488
0.500017
0.507018
0.513572
0.51974
0.525564
0.531071
0.536277
0.54118
0.545765
0.549997
0.553812
0.557114
0.559766
0.561593
0.562431
0.562262
0.561506
0.561547
0.563288
0.567196
0.573652
0.583448
0.598635
0.62465
0.674719
0.756795
0.390595
0.394698
0.400186
0.406847
0.414515
0.423078
0.432489
0.442785
0.454153
0.467066
0.482052
0.492825
0.501966
0.510119
0.517576
0.524507
0.531019
0.537183
0.543051
0.548654
0.554012
0.559127
0.563984
0.568544
0.572732
0.57642
0.579387
0.581268
0.581469
0.579212
0.574209
0.569503
0.56806
0.570148
0.575612
0.584902
0.599924
0.626102
0.676712
0.758648
0.402296
0.406116
0.411257
0.417557
0.424898
0.433218
0.442539
0.453043
0.465335
0.482053
0.752384
0.761457
0.75678
0.753902
0.752337
0.751611
0.751461
0.75172
0.752267
0.753004
0.753847
0.754709
0.755494
0.756086
0.756316
0.755913
0.75435
0.75039
0.740345
0.712381
0.579011
0.573898
0.572051
0.573319
0.578026
0.586832
0.601697
0.628103
0.679408
0.761046
0.413188
0.41679
0.421659
0.42767
0.434741
0.44285
0.45207
0.462656
0.475334
0.492825
0.761456
0.796107
0.797212
0.796736
0.796386
0.796172
0.796062
0.796029
0.796053
0.796114
0.796198
0.796287
0.796366
0.796412
0.796401
0.796288
0.795983
0.795281
0.79358
0.789121
0.584416
0.577799
0.575692
0.576532
0.580731
0.58916
0.603928
0.630657
0.68283
0.763948
0.423335
0.426764
0.431411
0.437179
0.444015
0.451923
0.461007
0.471555
0.484313
0.501966
0.756779
0.797212
0.799806
0.799869
0.799847
0.79983
0.799821
0.799816
0.799814
0.799816
0.799819
0.799823
0.799827
0.799829
0.799827
0.79982
0.799801
0.799761
0.799671
0.799485
0.589589
0.581554
0.579196
0.579767
0.583627
0.591798
0.606562
0.633732
0.686957
0.767259
0.432793
0.436081
0.440541
0.446099
0.452721
0.460433
0.469357
0.479792
0.492489
0.510119
0.753902
0.796736
0.799869
0.799993
0.799995
0.799994
0.799994
0.799993
0.799993
0.799993
0.799993
0.799994
0.799994
0.799994
0.799994
0.799993
0.799993
0.799991
0.799989
0.799983
0.594595
0.585258
0.582655
0.583027
0.586657
0.594675
0.609532
0.637276
0.691744
0.770846
0.441618
0.444787
0.449086
0.454457
0.460884
0.468405
0.477155
0.48744
0.500018
0.517577
0.752337
0.796386
0.799847
0.799995
0.8
0.8
0.8
0.8
0.8
0.8
0.8
0.8
0.8
0.8
0.8
0.8
0.8
0.8
0.8
0.8
0.599481
0.588948
0.586106
0.586318
0.589788
0.597736
0.612781
0.641234
0.697145
0.774553
0.449867
0.452934
0.457092
0.462294
0.468538
0.475874
0.484445
0.494569
0.507018
0.524508
0.751611
0.796172
0.79983
0.799994
0.8
0.8
0.8
0.8
0.8
0.8
0.8
0.8
0.8
0.8
0.8
0.8
0.8
0.8
0.8
0.8
0.604275
0.592643
0.58957
0.589641
0.592998
0.600943
0.616261
0.645559
0.70311
0.778222
0.457597
0.460575
0.464604
0.46965
0.47572
0.482876
0.491272
0.501243
0.513573
0.531019
0.751461
0.796062
0.799821
0.799994
0.8
0.8
0.8
0.8
0.8
0.8
0.8
0.8
0.8
0.8
0.8
0.8
0.8
0.8
0.8
0.8
0.609
0.596357
0.593059
0.593002
0.596277
0.60427
0.619935
0.650211
0.709577
0.781708
0.464861
0.467758
0.471667
0.476563
0.482466
0.48945
0.497683
0.507511
0.519741
0.537184
0.75172
0.796029
0.799816
0.799993
0.8
0.8
0.8
0.8
0.8
0.8
0.8
0.8
0.8
0.8
0.8
0.8
0.8
0.8
0.8
0.8
0.613678
0.600108
0.596586
0.596405
0.599619
0.607696
0.623773
0.65516
0.716463
0.784891
0.471707
0.474529
0.478323
0.483075
0.488815
0.495634
0.503711
0.513411
0.525565
0.543051
0.752267
0.796053
0.799814
0.799993
0.8
0.8
0.8
0.8
0.8
0.8
0.8
0.8
0.8
0.8
0.8
0.8
0.8
0.8
0.8
0.8
0.618331
0.603913
0.600163
0.599857
0.60302
0.611208
0.627749
0.66038
0.723653
0.787687
0.478184
0.480934
0.484614
0.489223
0.494803
0.501458
0.509386
0.51897
0.531072
0.548655
0.753004
0.796114
0.799816
0.799993
0.8
0.8
0.8
0.8
0.8
0.8
0.8
0.8
0.8
0.8
0.8
0.8
0.8
0.8
0.8
0.8
0.622985
0.607791
0.603805
0.603367
0.60648
0.614794
0.631843
0.665847
0.730974
0.790051
0.48434
0.487017
0.490582
0.495044
0.500459
0.506947
0.514727
0.524203
0.536277
0.554013
0.753847
0.796199
0.799819
0.799993
0.8
0.8
0.8
0.8
0.8
0.8
0.8
0.8
0.8
0.8
0.8
0.8
0.8
0.8
0.8
0.8
0.627666
0.611771
0.60753
0.606947
0.610003
0.618445
0.636028
0.671525
0.738194
0.791976
0.49022
0.492822
0.496265
0.50057
0.505809
0.51212
0.519743
0.529114
0.541181
0.559128
0.754709
0.796287
0.799823
0.799994
0.8
0.8
0.8
0.8
0.8
0.8
0.8
0.8
0.8
0.8
0.8
0.8
0.8
0.8
0.8
0.8
0.632406
0.615885
0.611364
0.610614
0.613594
0.622148
0.640275
0.677358
0.745031
0.793483
0.495867
0.498388
0.501698
0.50583
0.510874
0.516987
0.524436
0.533695
0.545766
0.563985
0.755494
0.796366
0.799827
0.799994
0.8
0.8
0.8
0.8
0.8
0.8
0.8
0.8
0.8
0.8
0.8
0.8
0.8
0.8
0.8
0.8
0.637242
0.620181
0.615341
0.614391
0.61726
0.62589
0.64454
0.683244
0.751189
0.794614
0.501325
0.503756
0.506916
0.510853
0.515673
0.521556
0.528799
0.537921
0.549997
0.568545
0.756086
0.796412
0.799829
0.799994
0.8
0.8
0.8
0.8
0.8
0.8
0.8
0.8
0.8
0.8
0.8
0.8
0.8
0.8
0.8
0.8
0.642226
0.624723
0.619511
0.618312
0.621015
0.629652
0.64876
0.689015
0.756405
0.795413
0.506637
0.508966
0.511956
0.515669
0.520226
0.525832
0.532818
0.541756
0.553812
0.572733
0.756316
0.7964
0.799827
0.799994
0.8
0.8
0.8
0.8
0.8
0.8
0.8
0.8
0.8
0.8
0.8
0.8
0.8
0.8
0.8
0.8
0.647424
0.629605
0.623952
0.622427
0.624876
0.633408
0.65285
0.694424
0.760477
0.795924
0.511851
0.514062
0.516857
0.52031
0.524557
0.529823
0.536475
0.545144
0.557114
0.57642
0.755913
0.796288
0.79982
0.799993
0.8
0.8
0.8
0.8
0.8
0.8
0.8
0.8
0.8
0.8
0.8
0.8
0.8
0.8
0.8
0.8
0.652938
0.634969
0.628779
0.626815
0.628877
0.637137
0.656697
0.699151
0.763279
0.796171
0.517018
0.519093
0.521667
0.52482
0.528701
0.533548
0.539759
0.548025
0.559766
0.579388
0.75435
0.795983
0.799801
0.799993
0.8
0.8
0.8
0.8
0.8
0.8
0.8
0.8
0.8
0.8
0.8
0.8
0.8
0.8
0.8
0.8
0.658931
0.641042
0.634183
0.631605
0.633082
0.640823
0.660173
0.70284
0.764735
0.796161
0.522197
0.524117
0.526443
0.529258
0.532712
0.53705
0.542683
0.550347
0.561594
0.581268
0.75039
0.795281
0.799761
0.799991
0.8
0.8
0.8
0.8
0.8
0.8
0.8
0.8
0.8
0.8
0.8
0.8
0.8
0.8
0.8
0.8
0.665688
0.648211
0.640492
0.63702
0.637616
0.644494
0.663163
0.705181
0.764802
0.795871
0.527459
0.529207
0.531261
0.533704
0.536678
0.540416
0.545318
0.552119
0.562431
0.581469
0.740345
0.79358
0.799671
0.799989
0.8
0.8
0.8
0.8
0.8
0.8
0.8
0.8
0.8
0.8
0.8
0.8
0.8
0.8
0.8
0.8
0.673787
0.657207
0.64831
0.643482
0.642739
0.648269
0.665625
0.705989
0.763465
0.795248
0.53289
0.53445
0.536218
0.538269
0.540726
0.543797
0.547831
0.553488
0.562263
0.579212
0.712381
0.789121
0.799485
0.799983
0.8
0.8
0.8
0.8
0.8
0.8
0.8
0.8
0.8
0.8
0.8
0.8
0.8
0.8
0.8
0.8
0.684674
0.66958
0.658849
0.651824
0.648988
0.652471
0.667693
0.705298
0.760712
0.794219
0.538599
0.539963
0.541442
0.543098
0.545036
0.54742
0.550522
0.554846
0.561507
0.57421
0.579012
0.584417
0.589589
0.594595
0.599481
0.604275
0.609
0.613678
0.618331
0.622985
0.627666
0.632406
0.637242
0.642225
0.647423
0.652937
0.65893
0.665688
0.673786
0.684673
0.693332
0.685461
0.673473
0.663359
0.657347
0.657772
0.669803
0.703445
0.75636
0.792594
0.544732
0.545897
0.547096
0.548381
0.549834
0.551581
0.553823
0.556912
0.561548
0.569504
0.573898
0.5778
0.581554
0.585259
0.588949
0.592643
0.596358
0.600109
0.603913
0.607792
0.611771
0.615885
0.620181
0.624723
0.629605
0.634969
0.641042
0.648211
0.657207
0.669579
0.68546
0.691845
0.686864
0.677053
0.668336
0.66502
0.672735
0.701111
0.750618
0.790123
0.551491
0.552461
0.553402
0.554356
0.555388
0.556595
0.558127
0.560222
0.563289
0.56806
0.572052
0.575693
0.579197
0.582656
0.586107
0.589571
0.59306
0.596587
0.600164
0.603806
0.607531
0.611364
0.615341
0.619512
0.623952
0.628779
0.634183
0.640492
0.64831
0.658848
0.673472
0.686864
0.692158
0.688456
0.680469
0.674393
0.677306
0.699245
0.743956
0.786571
0.559182
0.559968
0.56068
0.561353
0.562042
0.562826
0.56382
0.565195
0.567197
0.570149
0.57332
0.576533
0.579768
0.583028
0.586318
0.589642
0.593003
0.596406
0.599858
0.603368
0.606948
0.610614
0.614391
0.618312
0.622427
0.626815
0.631605
0.63702
0.643482
0.651824
0.663358
0.677052
0.688455
0.692998
0.690201
0.684503
0.683692
0.698749
0.737099
0.781767
0.568319
0.568936
0.569451
0.569897
0.570322
0.570796
0.571416
0.572312
0.573653
0.575613
0.578027
0.580732
0.583628
0.586658
0.589789
0.592999
0.596278
0.599619
0.60302
0.606481
0.610004
0.613594
0.617261
0.621015
0.624876
0.628877
0.633082
0.637616
0.642739
0.648988
0.657347
0.668335
0.680469
0.690201
0.694169
0.692527
0.690823
0.699968
0.730837
0.775675
0.579883
0.580351
0.580703
0.580973
0.581207
0.581473
0.581857
0.582473
0.583449
0.584903
0.586833
0.589161
0.591799
0.594676
0.597737
0.600944
0.604271
0.607697
0.611209
0.614795
0.618445
0.622149
0.625891
0.629652
0.633409
0.637137
0.640823
0.644494
0.648269
0.652471
0.657772
0.66502
0.674392
0.684503
0.692527
0.696079
0.696607
0.702298
0.725684
0.768423
0.596043
0.596389
0.596616
0.596759
0.596869
0.597016
0.597287
0.59779
0.598636
0.599925
0.601697
0.603929
0.606562
0.609533
0.612782
0.616262
0.619936
0.623773
0.62775
0.631843
0.636029
0.640275
0.64454
0.64876
0.65285
0.656697
0.660173
0.663163
0.665625
0.667693
0.669803
0.672735
0.677306
0.683692
0.690823
0.696607
0.699927
0.704646
0.721718
0.760255
0.62214
0.622418
0.622574
0.62265
0.622711
0.622836
0.623125
0.623692
0.624651
0.626103
0.628103
0.630658
0.633733
0.637277
0.641235
0.64556
0.650212
0.65516
0.660381
0.665847
0.671525
0.677358
0.683244
0.689015
0.694424
0.699151
0.70284
0.705181
0.705988
0.705298
0.703445
0.70111
0.699245
0.698749
0.699967
0.702298
0.704646
0.707969
0.719476
0.751748
0.671088
0.671405
0.671585
0.67169
0.671805
0.672035
0.672506
0.673356
0.67472
0.676713
0.679409
0.682831
0.686958
0.691744
0.697146
0.70311
0.709577
0.716464
0.723653
0.730974
0.738194
0.745031
0.751189
0.756405
0.760478
0.763279
0.764735
0.764802
0.763465
0.760712
0.75636
0.750618
0.743956
0.737099
0.730837
0.725684
0.721718
0.719476
0.723227
0.745416
0.753037
0.753337
0.753518
0.753645
0.753799
0.754079
0.754597
0.755468
0.756795
0.758648
0.761046
0.763948
0.767259
0.770846
0.774553
0.778222
0.781708
0.784891
0.787687
0.790051
0.791976
0.793483
0.794614
0.795413
0.795924
0.796172
0.796161
0.795871
0.795248
0.794219
0.792594
0.790123
0.786571
0.781767
0.775675
0.768423
0.760255
0.751747
0.745416
0.751087
0.214542
0.225007
0.241468
0.26118
0.281526
0.301146
0.319507
0.336454
0.352001
0.366224
0.379225
0.391117
0.402018
0.412047
0.421313
0.429903
0.437897
0.445365
0.452376
0.458985
0.465244
0.471202
0.476905
0.482399
0.487729
0.492943
0.498092
0.503234
0.508437
0.513784
0.519375
0.525342
0.531863
0.539188
0.547707
0.558057
0.571418
0.590559
0.624883
0.705352
0.225005
0.236474
0.252708
0.27125
0.290218
0.308603
0.325956
0.342112
0.357043
0.370788
0.383417
0.395018
0.405691
0.415542
0.424662
0.43313
0.441018
0.448392
0.455317
0.461843
0.468019
0.473892
0.479504
0.484897
0.490113
0.495198
0.5002
0.505176
0.510196
0.515344
0.520729
0.526487
0.532805
0.53994
0.548285
0.558483
0.571717
0.590757
0.625009
0.705475
0.241466
0.252709
0.267654
0.284374
0.30153
0.318351
0.334434
0.349589
0.36374
0.376879
0.389035
0.400264
0.410645
0.420259
0.429181
0.437476
0.445211
0.452447
0.45924
0.465638
0.471684
0.477421
0.482886
0.488117
0.49315
0.498027
0.502795
0.507511
0.512249
0.517102
0.522189
0.527662
0.533717
0.540621
0.54877
0.558809
0.571921
0.590871
0.625057
0.705506
0.261179
0.27125
0.284374
0.299079
0.314349
0.329551
0.344308
0.358406
0.371729
0.38422
0.395868
0.406697
0.416758
0.426105
0.434794
0.442884
0.450432
0.457497
0.464126
0.470361
0.476243
0.481805
0.487081
0.4921
0.496894
0.501497
0.505952
0.510318
0.514674
0.519127
0.523816
0.528915
0.534639
0.541264
0.549191
0.559062
0.572057
0.590931
0.625064
0.705504
0.281526
0.290218
0.30153
0.314349
0.327873
0.341564
0.355073
0.368169
0.380704
0.392584
0.403756
0.414208
0.423956
0.433028
0.441471
0.449336
0.45668
0.463552
0.469995
0.476047
0.481742
0.487108
0.492168
0.496945
0.501458
0.505735
0.509809
0.513738
0.517606
0.521539
0.525708
0.530324
0.535631
0.54192
0.549592
0.559284
0.572167
0.590981
0.625085
0.705543
0.301146
0.308603
0.318351
0.32955
0.341564
0.353938
0.36635
0.378573
0.390438
0.401816
0.412611
0.422755
0.432225
0.441037
0.449236
0.456874
0.464006
0.470676
0.476925
0.482787
0.488289
0.493453
0.498291
0.502815
0.507031
0.510948
0.514589
0.517998
0.521262
0.524528
0.528017
0.532006
0.536784
0.542661
0.550035
0.559533
0.572306
0.591076
0.625184
0.705715
0.319506
0.325956
0.334434
0.344308
0.355072
0.36635
0.37786
0.389391
0.400771
0.411845
0.42244
0.432392
0.44165
0.450235
0.458206
0.465626
0.472547
0.479018
0.485078
0.490758
0.496079
0.501055
0.505689
0.509977
0.513908
0.517468
0.52065
0.523472
0.526006
0.528417
0.530993
0.534145
0.538234
0.543592
0.550609
0.559885
0.572547
0.591287
0.625439
0.706125
0.336454
0.342111
0.349589
0.358406
0.368169
0.378573
0.389391
0.400453
0.411615
0.422701
0.43341
0.443359
0.452499
0.460904
0.468674
0.475886
0.482608
0.488892
0.494779
0.500299
0.505468
0.510293
0.514769
0.518876
0.522581
0.525838
0.528593
0.530806
0.53249
0.533792
0.535087
0.537056
0.540196
0.544867
0.551431
0.56044
0.572974
0.591692
0.625934
0.706884
0.352001
0.357043
0.363741
0.371729
0.380704
0.390438
0.400772
0.411616
0.422916
0.434564
0.446117
0.45636
0.465493
0.473765
0.481352
0.488369
0.494906
0.501022
0.506763
0.512159
0.517225
0.521964
0.526365
0.530396
0.534004
0.537106
0.539582
0.541283
0.542066
0.541925
0.541255
0.541342
0.543022
0.546701
0.552647
0.561305
0.573676
0.592369
0.626749
0.708095
0.366225
0.370789
0.37688
0.38422
0.392584
0.401816
0.411845
0.422701
0.434564
0.447893
0.463178
0.474059
0.483224
0.491354
0.498744
0.505565
0.511924
0.517896
0.523532
0.528864
0.533912
0.53868
0.543157
0.54731
0.551078
0.554356
0.556963
0.558601
0.558775
0.556823
0.552473
0.548412
0.547287
0.549351
0.5544
0.56258
0.574728
0.59338
0.62795
0.709842
0.379226
0.383417
0.389036
0.395869
0.403756
0.412612
0.42244
0.433411
0.446117
0.463178
0.743561
0.75261
0.74634
0.742138
0.739475
0.737787
0.736763
0.736212
0.735996
0.736001
0.736129
0.736279
0.736333
0.736146
0.735509
0.734081
0.731215
0.725376
0.712046
0.678377
0.55696
0.552371
0.55086
0.552183
0.556544
0.564254
0.576155
0.594756
0.629569
0.712174
0.391117
0.395018
0.400265
0.406698
0.414209
0.422756
0.432393
0.44336
0.456361
0.474059
0.752609
0.794216
0.795723
0.794874
0.794179
0.793672
0.793312
0.793066
0.792906
0.792808
0.792746
0.792696
0.792625
0.792499
0.79226
0.791817
0.790989
0.789352
0.7857
0.77676
0.562461
0.555945
0.554119
0.555043
0.558933
0.566254
0.577924
0.596484
0.631608
0.715099
0.402018
0.405691
0.410645
0.416759
0.423956
0.432226
0.44165
0.452499
0.465494
0.483224
0.74634
0.795723
0.799657
0.79976
0.799711
0.799669
0.799635
0.79961
0.799593
0.799581
0.799571
0.799563
0.799555
0.799543
0.799522
0.799485
0.799419
0.799295
0.799037
0.798518
0.567627
0.559363
0.557239
0.557905
0.561471
0.568495
0.579977
0.598521
0.634041
0.718593
0.412047
0.415542
0.42026
0.426106
0.433029
0.441038
0.450236
0.460905
0.473766
0.491354
0.742138
0.794874
0.79976
0.799983
0.799989
0.799987
0.799984
0.799983
0.799982
0.799981
0.799982
0.799981
0.79998
0.79998
0.799979
0.799976
0.799973
0.799968
0.799958
0.799942
0.572505
0.562691
0.560289
0.560766
0.564101
0.570907
0.582251
0.600813
0.636827
0.722603
0.421313
0.424663
0.429182
0.434795
0.441472
0.449237
0.458207
0.468675
0.481352
0.498745
0.739475
0.794179
0.799711
0.799989
0.8
0.8
0.8
0.8
0.8
0.799999
0.799999
0.799999
0.799999
0.799999
0.799999
0.799999
0.799999
0.799999
0.799999
0.799999
0.577166
0.565957
0.563298
0.563623
0.56679
0.573437
0.584686
0.603301
0.639908
0.727061
0.429904
0.433131
0.437477
0.442885
0.449337
0.456874
0.465627
0.475887
0.48837
0.505565
0.737786
0.793672
0.799668
0.799987
0.8
0.8
0.8
0.8
0.8
0.8
0.8
0.8
0.8
0.8
0.8
0.8
0.8
0.8
0.8
0.8
0.581652
0.569174
0.566278
0.566476
0.569513
0.576045
0.587235
0.605933
0.64323
0.731886
0.437898
0.441019
0.445212
0.450434
0.456681
0.464007
0.472548
0.482609
0.494906
0.511925
0.736763
0.793312
0.799635
0.799984
0.8
0.8
0.8
0.8
0.8
0.8
0.8
0.8
0.8
0.8
0.8
0.8
0.8
0.8
0.8
0.8
0.585991
0.572355
0.569238
0.569323
0.572256
0.578703
0.589859
0.608659
0.646747
0.736984
0.445366
0.448394
0.452448
0.457499
0.463553
0.470677
0.479019
0.488893
0.501023
0.517897
0.736212
0.793066
0.79961
0.799983
0.8
0.8
0.8
0.8
0.8
0.8
0.8
0.8
0.8
0.8
0.8
0.8
0.8
0.8
0.8
0.8
0.59021
0.575513
0.572184
0.572165
0.57501
0.581388
0.592524
0.611437
0.650417
0.742239
0.452377
0.455318
0.459242
0.464127
0.469996
0.476926
0.485079
0.49478
0.506764
0.523532
0.735996
0.792906
0.799593
0.799982
0.8
0.8
0.8
0.8
0.8
0.8
0.8
0.8
0.8
0.8
0.8
0.8
0.8
0.8
0.8
0.8
0.594332
0.578663
0.575127
0.575006
0.577768
0.584085
0.595202
0.614226
0.654206
0.747516
0.458986
0.461845
0.46564
0.470363
0.476048
0.482788
0.490759
0.5003
0.51216
0.528864
0.736002
0.792808
0.799581
0.799981
0.799999
0.8
0.8
0.8
0.8
0.8
0.8
0.8
0.8
0.8
0.8
0.8
0.8
0.8
0.8
0.8
0.598379
0.581823
0.578075
0.57785
0.580527
0.586778
0.597867
0.616991
0.658079
0.752653
0.465245
0.468021
0.471686
0.476244
0.481743
0.488291
0.49608
0.505469
0.517226
0.533912
0.736129
0.792746
0.799571
0.799982
0.799999
0.8
0.8
0.8
0.8
0.8
0.8
0.8
0.8
0.8
0.8
0.8
0.8
0.8
0.8
0.8
0.602372
0.585015
0.581044
0.580703
0.583286
0.589455
0.600492
0.61969
0.662
0.757475
0.471203
0.473894
0.477423
0.481807
0.487109
0.493454
0.501056
0.510294
0.521966
0.53868
0.736278
0.792696
0.799563
0.799981
0.799999
0.8
0.8
0.8
0.8
0.8
0.8
0.8
0.8
0.8
0.8
0.8
0.8
0.8
0.8
0.8
0.606334
0.588267
0.58405
0.583577
0.586044
0.592103
0.603048
0.622284
0.66592
0.761808
0.476906
0.479506
0.482888
0.487082
0.492169
0.498293
0.50569
0.51477
0.526366
0.543157
0.736333
0.792625
0.799555
0.79998
0.799999
0.8
0.8
0.8
0.8
0.8
0.8
0.8
0.8
0.8
0.8
0.8
0.8
0.8
0.8
0.8
0.610286
0.591617
0.587119
0.586484
0.588802
0.594708
0.605504
0.624723
0.669765
0.765493
0.4824
0.484899
0.488118
0.492102
0.496946
0.502816
0.509978
0.518877
0.530397
0.547311
0.736146
0.792499
0.799543
0.79998
0.799999
0.8
0.8
0.8
0.8
0.8
0.8
0.8
0.8
0.8
0.8
0.8
0.8
0.8
0.8
0.8
0.614257
0.595117
0.590288
0.589446
0.591564
0.597253
0.607822
0.626953
0.673419
0.768402
0.48773
0.490115
0.493152
0.496895
0.50146
0.507032
0.513909
0.522582
0.534005
0.551079
0.735509
0.792259
0.799522
0.799979
0.799999
0.8
0.8
0.8
0.8
0.8
0.8
0.8
0.8
0.8
0.8
0.8
0.8
0.8
0.8
0.8
0.618278
0.598838
0.593609
0.592491
0.594339
0.599724
0.609965
0.62891
0.676712
0.770431
0.492944
0.4952
0.498029
0.501498
0.505736
0.51095
0.517469
0.525839
0.537107
0.554356
0.734081
0.791817
0.799485
0.799976
0.799999
0.8
0.8
0.8
0.8
0.8
0.8
0.8
0.8
0.8
0.8
0.8
0.8
0.8
0.8
0.8
0.622397
0.602885
0.597165
0.59567
0.597145
0.602112
0.611898
0.630525
0.679403
0.77149
0.498093
0.500201
0.502796
0.505953
0.50981
0.51459
0.520651
0.528595
0.539583
0.556964
0.731215
0.790989
0.799419
0.799973
0.799999
0.8
0.8
0.8
0.8
0.8
0.8
0.8
0.8
0.8
0.8
0.8
0.8
0.8
0.8
0.8
0.626675
0.607414
0.601087
0.599064
0.600021
0.604422
0.613596
0.631732
0.681204
0.771479
0.503235
0.505178
0.507512
0.510319
0.513739
0.517999
0.523473
0.530807
0.541284
0.558601
0.725376
0.789352
0.799295
0.799968
0.799999
0.8
0.8
0.8
0.8
0.8
0.8
0.8
0.8
0.8
0.8
0.8
0.8
0.8
0.8
0.8
0.631208
0.612676
0.605595
0.602818
0.603053
0.606694
0.615064
0.632482
0.681803
0.770274
0.508439
0.510198
0.51225
0.514675
0.517607
0.521263
0.526008
0.532491
0.542067
0.558776
0.712046
0.7857
0.799037
0.799958
0.799999
0.8
0.8
0.8
0.8
0.8
0.8
0.8
0.8
0.8
0.8
0.8
0.8
0.8
0.8
0.8
0.636144
0.619095
0.611077
0.607203
0.60641
0.609031
0.616359
0.632772
0.680944
0.767718
0.513786
0.515346
0.517103
0.519128
0.52154
0.52453
0.528418
0.533794
0.541927
0.556824
0.678378
0.77676
0.798518
0.799942
0.799999
0.8
0.8
0.8
0.8
0.8
0.8
0.8
0.8
0.8
0.8
0.8
0.8
0.8
0.8
0.8
0.641749
0.62739
0.618219
0.612729
0.610434
0.611659
0.617631
0.632682
0.678577
0.763574
0.519377
0.520731
0.52219
0.523817
0.525709
0.528018
0.530995
0.535088
0.541256
0.552474
0.556961
0.562462
0.567628
0.572505
0.577167
0.581653
0.585992
0.590211
0.594332
0.598379
0.602373
0.606334
0.610287
0.614257
0.618279
0.622397
0.626675
0.631208
0.636144
0.641749
0.645027
0.63713
0.62756
0.620092
0.615708
0.615004
0.619185
0.632428
0.675038
0.757775
0.525344
0.526489
0.527664
0.528917
0.530326
0.532007
0.534146
0.537058
0.541343
0.548413
0.552372
0.555946
0.559364
0.562692
0.565958
0.569175
0.572357
0.575515
0.578664
0.581824
0.585016
0.588268
0.591618
0.595118
0.598839
0.602885
0.607414
0.612676
0.619095
0.62739
0.63713
0.639592
0.635116
0.628244
0.622386
0.619546
0.621493
0.632409
0.670808
0.750439
0.531864
0.532807
0.533719
0.534641
0.535633
0.536786
0.538235
0.540197
0.543023
0.547289
0.550861
0.55412
0.55724
0.56029
0.563299
0.566279
0.569239
0.572185
0.575128
0.578076
0.581044
0.584051
0.58712
0.590289
0.59361
0.597166
0.601087
0.605595
0.611077
0.618219
0.62756
0.635116
0.637255
0.634387
0.629375
0.625305
0.625029
0.633201
0.666618
0.741953
0.53919
0.539942
0.540622
0.541266
0.541922
0.542662
0.543593
0.544869
0.546703
0.549352
0.552184
0.555044
0.557906
0.560767
0.563624
0.566477
0.569324
0.572167
0.575007
0.577851
0.580704
0.583578
0.586485
0.589446
0.592492
0.595671
0.599064
0.602818
0.607204
0.612729
0.620092
0.628244
0.634387
0.636461
0.634743
0.631465
0.629927
0.635421
0.663398
0.733058
0.547708
0.548286
0.548771
0.549192
0.549593
0.550036
0.55061
0.551432
0.552648
0.554401
0.556546
0.558934
0.561472
0.564103
0.566791
0.569515
0.572258
0.575011
0.577769
0.580528
0.583287
0.586044
0.588803
0.591565
0.59434
0.597145
0.600022
0.603053
0.60641
0.610435
0.615708
0.622386
0.629375
0.634743
0.637087
0.636653
0.635719
0.639469
0.662128
0.724811
0.558058
0.558484
0.55881
0.559063
0.559286
0.559534
0.559887
0.560441
0.561307
0.562581
0.564255
0.566255
0.568496
0.570908
0.573438
0.576046
0.578704
0.581389
0.584086
0.586779
0.589457
0.592104
0.594709
0.597253
0.599725
0.602113
0.604423
0.606695
0.609031
0.611659
0.615004
0.619546
0.625305
0.631465
0.636653
0.639827
0.641443
0.645236
0.663549
0.718387
0.571419
0.571718
0.571922
0.572058
0.572168
0.572308
0.572548
0.572975
0.573677
0.57473
0.576156
0.577925
0.579979
0.582252
0.584687
0.587237
0.58986
0.592525
0.595203
0.597868
0.600493
0.603049
0.605505
0.607823
0.609966
0.611898
0.613597
0.615064
0.616359
0.617632
0.619186
0.621493
0.625029
0.629927
0.635719
0.641443
0.646379
0.652083
0.667782
0.714643
0.59056
0.590758
0.590872
0.590933
0.590982
0.591077
0.591288
0.591693
0.59237
0.593381
0.594757
0.596485
0.598522
0.600814
0.603302
0.605934
0.60866
0.611438
0.614227
0.616991
0.619691
0.622285
0.624724
0.626954
0.628911
0.630526
0.631733
0.632483
0.632772
0.632682
0.632428
0.63241
0.633201
0.635421
0.639469
0.645236
0.652083
0.66003
0.674523
0.713719
0.624884
0.62501
0.625057
0.625065
0.625086
0.625185
0.62544
0.625935
0.62675
0.62795
0.62957
0.631609
0.634042
0.636828
0.639909
0.643231
0.646748
0.650418
0.654207
0.65808
0.662001
0.66592
0.669765
0.67342
0.676712
0.679403
0.681204
0.681803
0.680944
0.678577
0.675039
0.670808
0.666618
0.663398
0.662128
0.663549
0.667782
0.674523
0.686162
0.716285
0.705352
0.705476
0.705507
0.705504
0.705543
0.705715
0.706126
0.706885
0.708096
0.709843
0.712174
0.7151
0.718593
0.722603
0.727061
0.731886
0.736984
0.742239
0.747516
0.752653
0.757476
0.761808
0.765494
0.768402
0.770431
0.77149
0.771479
0.770274
0.767718
0.763574
0.757775
0.750439
0.741953
0.733058
0.724812
0.718387
0.714643
0.713719
0.716285
0.730633
0.200864
0.204158
0.215015
0.233889
0.256102
0.278232
0.298937
0.317859
0.335007
0.35051
0.364527
0.377222
0.388752
0.399265
0.4089
0.417781
0.426008
0.433665
0.440827
0.447558
0.453917
0.459956
0.465722
0.471264
0.476628
0.481862
0.487017
0.492151
0.497329
0.50263
0.508149
0.514007
0.520363
0.527435
0.535548
0.545234
0.557541
0.575227
0.607548
0.685755
0.204157
0.21093
0.225083
0.24455
0.265756
0.286565
0.306095
0.324077
0.340495
0.355435
0.369016
0.38137
0.39263
0.402929
0.412394
0.421135
0.429242
0.436793
0.443856
0.450495
0.456762
0.462705
0.46837
0.473801
0.47904
0.484134
0.489132
0.494089
0.499074
0.504168
0.509473
0.515117
0.521265
0.528145
0.536083
0.545615
0.557791
0.575366
0.607606
0.685799
0.215011
0.225083
0.240573
0.259106
0.278504
0.297506
0.315515
0.33229
0.347774
0.361992
0.375012
0.386924
0.397832
0.407848
0.417083
0.425627
0.433561
0.440955
0.447872
0.454368
0.460491
0.466284
0.471789
0.477044
0.482088
0.486962
0.491713
0.4964
0.501094
0.505886
0.510889
0.516245
0.522132
0.528781
0.536526
0.545901
0.557952
0.575429
0.607595
0.685765
0.233887
0.24455
0.259106
0.275708
0.292969
0.310035
0.326436
0.341933
0.356418
0.369859
0.38227
0.393698
0.404216
0.413915
0.422882
0.431192
0.438915
0.446115
0.452849
0.459166
0.465106
0.470709
0.476009
0.481037
0.485826
0.490411
0.494839
0.499165
0.50347
0.507857
0.51246
0.517444
0.523002
0.529378
0.536906
0.546118
0.558051
0.575443
0.60755
0.685705
0.256102
0.265757
0.278504
0.292969
0.308147
0.323382
0.338263
0.352544
0.366075
0.378773
0.3906
0.401558
0.411693
0.42107
0.429752
0.437807
0.445296
0.45228
0.458807
0.464919
0.470653
0.476039
0.481105
0.485872
0.490364
0.494608
0.498641
0.50252
0.506331
0.510196
0.51428
0.518786
0.523935
0.529982
0.537264
0.546304
0.558126
0.575448
0.60752
0.685689
0.278233
0.286565
0.297507
0.310035
0.323382
0.337011
0.350557
0.363771
0.376476
0.388545
0.399884
0.410446
0.420242
0.429312
0.437711
0.445504
0.452751
0.459506
0.465814
0.471712
0.47723
0.482392
0.487214
0.491707
0.495882
0.49975
0.503336
0.506686
0.509888
0.513087
0.516497
0.520385
0.525016
0.530664
0.537661
0.546514
0.558227
0.575497
0.607567
0.685803
0.298937
0.306095
0.315515
0.326436
0.338263
0.350557
0.362998
0.375352
0.387433
0.399074
0.410113
0.420412
0.42994
0.438736
0.446866
0.454401
0.461406
0.467931
0.474021
0.479709
0.485019
0.489967
0.494558
0.498792
0.502659
0.506151
0.509263
0.512018
0.514489
0.51684
0.519352
0.522418
0.526378
0.531525
0.538178
0.54682
0.558421
0.575653
0.607761
0.686142
0.317859
0.324077
0.33229
0.341933
0.352544
0.36377
0.375352
0.387092
0.398828
0.410376
0.421455
0.43169
0.441047
0.449613
0.457493
0.464782
0.471549
0.477852
0.483734
0.489228
0.494353
0.499119
0.50352
0.507543
0.511158
0.514323
0.516991
0.519128
0.520753
0.522012
0.523272
0.525187
0.528227
0.53271
0.538929
0.547313
0.558784
0.575986
0.60818
0.68681
0.335007
0.340495
0.347774
0.356418
0.366075
0.376476
0.387433
0.398828
0.410597
0.422639
0.434511
0.444981
0.454271
0.462643
0.470288
0.477333
0.483869
0.489961
0.495655
0.500983
0.505963
0.510601
0.514886
0.518792
0.522271