/*--------------------------------*- C++ -*----------------------------------*\
| =========                 |                                                 |
| \\      /  F ield         | OpenFOAM: The Open Source CFD Toolbox           |
|  \\    /   O peration     | Version:  2.1.0                                 |
|   \\  /    A nd           | Web:      www.OpenFOAM.org                      |
|    \\/     M anipulation  |                                                 |
\*---------------------------------------------------------------------------*/
FoamFile
{
    version     2.0;
    format      ascii;
    class       volScalarField;
    location    "40150";
    object      sw;
}
// * * * * * * * * * * * * * * * * * * * * * * * * * * * * * * * * * * * * * //

dimensions      [0 0 0 0 0 0 0];

internalField   nonuniform List<scalar> 
8000
(
0.740821
0.729077
0.714056
0.6977
0.681198
0.665157
0.649868
0.635462
0.621977
0.609404
0.597703
0.586812
0.576665
0.567207
0.558382
0.550133
0.542403
0.53514
0.528293
0.521816
0.51566
0.50978
0.504133
0.498676
0.493363
0.488149
0.482983
0.477803
0.472542
0.467111
0.461402
0.455269
0.44851
0.440819
0.431682
0.420117
0.403958
0.37786
0.328912
0.246963
0.729078
0.718237
0.704447
0.689352
0.673969
0.658864
0.644332
0.630524
0.617509
0.605302
0.593884
0.58321
0.573236
0.56392
0.555213
0.547066
0.539426
0.532243
0.525472
0.519067
0.512984
0.507179
0.501613
0.496245
0.491036
0.48594
0.480909
0.475884
0.470795
0.465551
0.460038
0.454104
0.44754
0.440033
0.431065
0.41965
0.403612
0.377583
0.328596
0.246664
0.714057
0.704447
0.6922
0.678642
0.664625
0.650665
0.637065
0.624
0.611568
0.599814
0.588743
0.578341
0.568589
0.55946
0.550914
0.542909
0.535397
0.528334
0.521678
0.515387
0.509419
0.503736
0.498303
0.493085
0.488045
0.483144
0.478335
0.473558
0.46874
0.463783
0.45856
0.452905
0.446599
0.439322
0.43055
0.419298
0.403385
0.377427
0.328416
0.246483
0.697701
0.689352
0.678642
0.666611
0.65397
0.641184
0.62855
0.616261
0.604438
0.593153
0.582443
0.57233
0.562821
0.553902
0.545543
0.537707
0.530351
0.523437
0.516926
0.510778
0.504957
0.499431
0.494171
0.489147
0.484332
0.479691
0.475181
0.470743
0.466297
0.461733
0.456903
0.45162
0.445645
0.438648
0.430104
0.419028
0.403242
0.37735
0.328311
0.246356
0.681199
0.673969
0.664625
0.65397
0.642591
0.630898
0.619171
0.607608
0.596347
0.585486
0.575103
0.565259
0.555986
0.54728
0.539117
0.531463
0.524281
0.517535
0.511186
0.505198
0.499542
0.494192
0.489127
0.484328
0.479775
0.475444
0.4713
0.467289
0.463323
0.459275
0.454965
0.450167
0.444613
0.437959
0.429679
0.418794
0.403132
0.37729
0.328196
0.246201
0.665157
0.658864
0.650666
0.641184
0.630898
0.620157
0.609219
0.598272
0.587462
0.576922
0.566783
0.55715
0.548077
0.539567
0.531595
0.524126
0.517125
0.510551
0.504367
0.498543
0.493053
0.487881
0.483014
0.478445
0.474169
0.470178
0.466453
0.462951
0.459585
0.456204
0.452581
0.44842
0.443406
0.437175
0.429205
0.418528
0.402985
0.377165
0.327966
0.245921
0.649869
0.644332
0.637065
0.62855
0.619171
0.609219
0.598913
0.588422
0.577898
0.567511
0.557461
0.547931
0.538993
0.530644
0.522845
0.515556
0.508728
0.502318
0.496289
0.490615
0.485274
0.480258
0.475565
0.471202
0.467183
0.463526
0.460243
0.457318
0.454683
0.45217
0.449479
0.446178
0.441874
0.436181
0.428585
0.418144
0.402714
0.376876
0.327495
0.245403
0.635462
0.630524
0.624
0.61626
0.607608
0.598272
0.588422
0.578195
0.567729
0.557215
0.546958
0.537345
0.528446
0.520208
0.51256
0.505431
0.498758
0.49249
0.486589
0.48103
0.475797
0.470886
0.466306
0.46208
0.458245
0.454857
0.451976
0.449654
0.447882
0.446513
0.445155
0.443089
0.439779
0.434806
0.427689
0.417528
0.402211
0.376309
0.326645
0.244532
0.621977
0.617509
0.611568
0.604437
0.596347
0.587462
0.577898
0.567729
0.55701
0.545847
0.534665
0.524666
0.515687
0.507512
0.499983
0.492982
0.486428
0.48026
0.474436
0.468929
0.463723
0.45882
0.454235
0.450003
0.446188
0.442886
0.440234
0.438407
0.437569
0.437738
0.438494
0.438453
0.436712
0.432804
0.426348
0.416552
0.401365
0.37535
0.325281
0.243205
0.609405
0.605302
0.599814
0.593153
0.585485
0.576922
0.567511
0.557215
0.545847
0.532934
0.517948
0.507175
0.498034
0.489881
0.482424
0.475493
0.468981
0.462817
0.456949
0.451346
0.445988
0.440873
0.436016
0.431456
0.427268
0.42358
0.420613
0.418732
0.418531
0.420788
0.425791
0.430497
0.43194
0.429852
0.424388
0.415098
0.400076
0.373898
0.323288
0.241352
0.597704
0.593884
0.588743
0.582443
0.575102
0.566782
0.557461
0.546957
0.534665
0.517947
0.247616
0.238543
0.24322
0.246098
0.247663
0.248389
0.248539
0.24828
0.247733
0.246996
0.246153
0.245291
0.244506
0.243914
0.243684
0.244087
0.24565
0.24961
0.259655
0.287619
0.420989
0.426102
0.427949
0.426681
0.421974
0.413168
0.398303
0.371897
0.320592
0.238954
0.586812
0.58321
0.578341
0.57233
0.565259
0.55715
0.54793
0.537344
0.524666
0.507175
0.238544
0.203893
0.202788
0.203264
0.203614
0.203828
0.203938
0.203971
0.203947
0.203886
0.203802
0.203713
0.203634
0.203588
0.203599
0.203712
0.204017
0.204719
0.20642
0.210879
0.415584
0.422201
0.424308
0.423468
0.419269
0.41084
0.396072
0.369343
0.31717
0.236052
0.576665
0.573236
0.568589
0.562821
0.555985
0.548077
0.538993
0.528445
0.515687
0.498034
0.243221
0.202788
0.200194
0.200131
0.200153
0.20017
0.200179
0.200184
0.200186
0.200184
0.200181
0.200177
0.200173
0.200171
0.200173
0.20018
0.200199
0.200239
0.200329
0.200515
0.410411
0.418446
0.420804
0.420233
0.416373
0.408202
0.393438
0.366268
0.313043
0.232741
0.567207
0.563919
0.559459
0.553901
0.547279
0.539567
0.530643
0.520208
0.507511
0.489881
0.246098
0.203264
0.200131
0.200007
0.200005
0.200006
0.200006
0.200007
0.200007
0.200007
0.200007
0.200006
0.200006
0.200006
0.200006
0.200007
0.200007
0.200009
0.200011
0.200017
0.405405
0.414742
0.417345
0.416973
0.413343
0.405325
0.390468
0.362724
0.308256
0.229154
0.558382
0.555213
0.550914
0.545543
0.539116
0.531595
0.522845
0.51256
0.499982
0.482423
0.247663
0.203614
0.200153
0.200005
0.2
0.2
0.2
0.2
0.2
0.2
0.2
0.2
0.2
0.2
0.2
0.2
0.2
0.2
0.2
0.2
0.400519
0.411052
0.413894
0.413682
0.410212
0.402264
0.387219
0.358766
0.302855
0.225447
0.550133
0.547066
0.542908
0.537706
0.531462
0.524126
0.515555
0.505431
0.492982
0.475492
0.248389
0.203828
0.20017
0.200006
0.2
0.2
0.2
0.2
0.2
0.2
0.2
0.2
0.2
0.2
0.2
0.2
0.2
0.2
0.2
0.2
0.395725
0.407357
0.41043
0.410359
0.407002
0.399057
0.383739
0.354441
0.29689
0.221778
0.542403
0.539425
0.535396
0.53035
0.52428
0.517124
0.508728
0.498757
0.486427
0.468981
0.248539
0.203938
0.200179
0.200006
0.2
0.2
0.2
0.2
0.2
0.2
0.2
0.2
0.2
0.2
0.2
0.2
0.2
0.2
0.2
0.2
0.391
0.403643
0.406941
0.406998
0.403723
0.39573
0.380065
0.349789
0.290423
0.218292
0.535139
0.532242
0.528333
0.523437
0.517534
0.51055
0.502317
0.492489
0.480259
0.462816
0.24828
0.203971
0.200184
0.200007
0.2
0.2
0.2
0.2
0.2
0.2
0.2
0.2
0.2
0.2
0.2
0.2
0.2
0.2
0.2
0.2
0.386322
0.399892
0.403414
0.403595
0.400381
0.392304
0.376227
0.34484
0.283537
0.215109
0.528293
0.525471
0.521677
0.516925
0.511185
0.504366
0.496289
0.486589
0.474435
0.456949
0.247733
0.203947
0.200186
0.200007
0.2
0.2
0.2
0.2
0.2
0.2
0.2
0.2
0.2
0.2
0.2
0.2
0.2
0.2
0.2
0.2
0.381669
0.396087
0.399837
0.400143
0.39698
0.388792
0.372251
0.33962
0.276347
0.212313
0.521816
0.519066
0.515386
0.510777
0.505197
0.498542
0.490614
0.48103
0.468928
0.451345
0.246996
0.203886
0.200184
0.200007
0.2
0.2
0.2
0.2
0.2
0.2
0.2
0.2
0.2
0.2
0.2
0.2
0.2
0.2
0.2
0.2
0.377015
0.392209
0.396195
0.396633
0.39352
0.385206
0.368157
0.334153
0.269026
0.209949
0.51566
0.512983
0.509418
0.504956
0.499541
0.493053
0.485273
0.475797
0.463723
0.445987
0.246153
0.203801
0.200181
0.200007
0.2
0.2
0.2
0.2
0.2
0.2
0.2
0.2
0.2
0.2
0.2
0.2
0.2
0.2
0.2
0.2
0.372334
0.388229
0.39247
0.393053
0.389997
0.381555
0.363972
0.328475
0.261806
0.208024
0.50978
0.507178
0.503735
0.49943
0.494191
0.48788
0.480257
0.470886
0.458819
0.440872
0.245291
0.203713
0.200177
0.200006
0.2
0.2
0.2
0.2
0.2
0.2
0.2
0.2
0.2
0.2
0.2
0.2
0.2
0.2
0.2
0.2
0.367594
0.384115
0.388636
0.389386
0.386406
0.377852
0.359725
0.322642
0.254969
0.206517
0.504133
0.501612
0.498302
0.49417
0.489126
0.483013
0.475564
0.466305
0.454234
0.436015
0.244506
0.203634
0.200173
0.200006
0.2
0.2
0.2
0.2
0.2
0.2
0.2
0.2
0.2
0.2
0.2
0.2
0.2
0.2
0.2
0.2
0.362758
0.379819
0.384659
0.385609
0.38274
0.37411
0.35546
0.316756
0.248811
0.205386
0.498675
0.496244
0.493084
0.489147
0.484327
0.478444
0.471201
0.462079
0.450003
0.431455
0.243914
0.203588
0.200171
0.200006
0.2
0.2
0.2
0.2
0.2
0.2
0.2
0.2
0.2
0.2
0.2
0.2
0.2
0.2
0.2
0.2
0.357774
0.375277
0.380489
0.381688
0.378985
0.370348
0.35124
0.310985
0.243595
0.204587
0.493363
0.491034
0.488044
0.484331
0.479774
0.474168
0.467182
0.458244
0.446188
0.427267
0.243684
0.2036
0.200173
0.200006
0.2
0.2
0.2
0.2
0.2
0.2
0.2
0.2
0.2
0.2
0.2
0.2
0.2
0.2
0.2
0.2
0.352576
0.370395
0.376048
0.377573
0.375124
0.366592
0.34715
0.305576
0.239523
0.204076
0.488149
0.485938
0.483143
0.47969
0.475443
0.470177
0.463525
0.454856
0.442886
0.42358
0.244087
0.203712
0.20018
0.200007
0.2
0.2
0.2
0.2
0.2
0.2
0.2
0.2
0.2
0.2
0.2
0.2
0.2
0.2
0.2
0.2
0.347062
0.365031
0.371221
0.373185
0.371123
0.362863
0.343303
0.300849
0.236721
0.203829
0.482982
0.480907
0.478333
0.47518
0.471299
0.466452
0.460241
0.451975
0.440234
0.420612
0.24565
0.204017
0.200199
0.200007
0.2
0.2
0.2
0.2
0.2
0.2
0.2
0.2
0.2
0.2
0.2
0.2
0.2
0.2
0.2
0.2
0.341069
0.358958
0.365817
0.368395
0.366918
0.359177
0.339827
0.29716
0.235265
0.203839
0.477803
0.475883
0.473557
0.470742
0.467288
0.46295
0.457317
0.449653
0.438406
0.418732
0.24961
0.204719
0.200239
0.200009
0.2
0.2
0.2
0.2
0.2
0.2
0.2
0.2
0.2
0.2
0.2
0.2
0.2
0.2
0.2
0.2
0.334312
0.351789
0.359508
0.36298
0.362384
0.355506
0.336837
0.294819
0.235198
0.204129
0.472541
0.470793
0.468739
0.466296
0.463322
0.459584
0.454682
0.447881
0.437569
0.418531
0.259655
0.20642
0.200329
0.200011
0.2
0.2
0.2
0.2
0.2
0.2
0.2
0.2
0.2
0.2
0.2
0.2
0.2
0.2
0.2
0.2
0.326213
0.342793
0.35169
0.356518
0.357261
0.351731
0.334375
0.294011
0.236535
0.204752
0.46711
0.46555
0.463782
0.461731
0.459274
0.456203
0.452169
0.446512
0.437737
0.420788
0.287619
0.210879
0.200515
0.200017
0.2
0.2
0.2
0.2
0.2
0.2
0.2
0.2
0.2
0.2
0.2
0.2
0.2
0.2
0.2
0.2
0.315326
0.33042
0.341151
0.348176
0.351012
0.347529
0.332307
0.294702
0.239288
0.205781
0.461401
0.460037
0.458558
0.456902
0.454964
0.45258
0.449478
0.445154
0.438493
0.42579
0.420988
0.415583
0.410411
0.405405
0.400519
0.395725
0.391
0.386322
0.381669
0.377015
0.372334
0.367594
0.362758
0.357775
0.352577
0.347063
0.34107
0.334312
0.326214
0.315327
0.306668
0.314539
0.326527
0.336641
0.342653
0.342228
0.330197
0.296555
0.24364
0.207406
0.455268
0.454103
0.452904
0.451619
0.450166
0.448419
0.446177
0.443088
0.438452
0.430496
0.426102
0.4222
0.418446
0.414741
0.411051
0.407357
0.403642
0.399891
0.396087
0.392208
0.388229
0.384115
0.379819
0.375277
0.370395
0.365031
0.358958
0.351789
0.342793
0.330421
0.31454
0.308155
0.313136
0.322947
0.331664
0.33498
0.327265
0.298889
0.249382
0.209877
0.448509
0.447539
0.446598
0.445644
0.444612
0.443405
0.441873
0.439778
0.436711
0.43194
0.427948
0.424307
0.420803
0.417344
0.413893
0.410429
0.40694
0.403413
0.399836
0.396194
0.392469
0.388636
0.384659
0.380488
0.376048
0.371221
0.365817
0.359508
0.35169
0.341152
0.326528
0.313136
0.307842
0.311544
0.319531
0.325607
0.322694
0.300755
0.256044
0.213429
0.440818
0.440032
0.43932
0.438647
0.437958
0.437174
0.43618
0.434805
0.432803
0.429851
0.42668
0.423467
0.420232
0.416972
0.413682
0.410358
0.406997
0.403594
0.400142
0.396632
0.393052
0.389386
0.385609
0.381688
0.377573
0.373185
0.368395
0.36298
0.356518
0.348176
0.336642
0.322948
0.311545
0.307002
0.309799
0.315497
0.316308
0.301251
0.262901
0.218233
0.431681
0.431064
0.430549
0.430103
0.429678
0.429204
0.428584
0.427688
0.426347
0.424387
0.421973
0.419268
0.416372
0.413342
0.410211
0.407001
0.403722
0.400381
0.39698
0.393519
0.389996
0.386406
0.382739
0.378985
0.375124
0.371123
0.366918
0.362384
0.357261
0.351012
0.342653
0.331665
0.319531
0.309799
0.305831
0.307473
0.309177
0.300032
0.269163
0.224325
0.420117
0.419649
0.419297
0.419027
0.418793
0.418527
0.418143
0.417527
0.416551
0.415097
0.413167
0.410839
0.408201
0.405324
0.402263
0.399056
0.395729
0.392303
0.388791
0.385205
0.381555
0.377851
0.374109
0.370348
0.366591
0.362863
0.359177
0.355506
0.351731
0.347529
0.342228
0.33498
0.325608
0.315497
0.307473
0.303921
0.303393
0.297702
0.274316
0.231577
0.403957
0.403611
0.403384
0.403241
0.403131
0.402984
0.402713
0.40221
0.401364
0.400075
0.398303
0.396071
0.393438
0.390467
0.387218
0.383738
0.380064
0.376227
0.37225
0.368157
0.363971
0.359725
0.35546
0.35124
0.34715
0.343303
0.339827
0.336837
0.334375
0.332307
0.330197
0.327265
0.322694
0.316308
0.309177
0.303393
0.300073
0.295354
0.278282
0.239745
0.37786
0.377582
0.377426
0.37735
0.377289
0.377164
0.376875
0.376308
0.375349
0.373897
0.371897
0.369342
0.366267
0.362723
0.358765
0.35444
0.349788
0.34484
0.339619
0.334153
0.328475
0.322642
0.316756
0.310985
0.305576
0.300849
0.29716
0.294819
0.294012
0.294702
0.296555
0.29889
0.300755
0.301251
0.300033
0.297702
0.295354
0.292031
0.280524
0.248252
0.328912
0.328595
0.328415
0.32831
0.328195
0.327965
0.327494
0.326644
0.32528
0.323287
0.320591
0.317169
0.313042
0.308256
0.302854
0.29689
0.290423
0.283536
0.276347
0.269026
0.261806
0.254969
0.248811
0.243595
0.239522
0.236721
0.235265
0.235198
0.236535
0.239288
0.24364
0.249382
0.256044
0.262901
0.269163
0.274316
0.278282
0.280524
0.276773
0.254584
0.246963
0.246663
0.246482
0.246355
0.246201
0.245921
0.245403
0.244532
0.243205
0.241352
0.238954
0.236052
0.232741
0.229154
0.225447
0.221778
0.218292
0.215109
0.212313
0.209949
0.208024
0.206517
0.205386
0.204587
0.204076
0.203828
0.203839
0.204129
0.204752
0.205781
0.207406
0.209877
0.213429
0.218233
0.224325
0.231577
0.239745
0.248253
0.254584
0.248913
0.785458
0.774993
0.758532
0.73882
0.718474
0.698854
0.680493
0.663546
0.647999
0.633776
0.620775
0.608883
0.597982
0.587953
0.578687
0.570097
0.562103
0.554635
0.547624
0.541015
0.534756
0.528798
0.523095
0.517601
0.512271
0.507057
0.501908
0.496766
0.491563
0.486216
0.480625
0.474658
0.468137
0.460812
0.452293
0.441943
0.428582
0.409441
0.375117
0.294648
0.774995
0.763526
0.747292
0.72875
0.709782
0.691397
0.674044
0.657888
0.642957
0.629212
0.616583
0.604982
0.594309
0.584458
0.575338
0.56687
0.558982
0.551608
0.544683
0.538157
0.531981
0.526108
0.520496
0.515103
0.509887
0.504802
0.4998
0.494824
0.489804
0.484656
0.479271
0.473513
0.467195
0.46006
0.451715
0.441517
0.428283
0.409243
0.374991
0.294525
0.758534
0.747291
0.732346
0.715626
0.69847
0.681649
0.665566
0.650411
0.63626
0.623121
0.610965
0.599736
0.589355
0.579741
0.570819
0.562524
0.554789
0.547553
0.54076
0.534362
0.528316
0.522579
0.517114
0.511883
0.50685
0.501973
0.497205
0.492489
0.487751
0.482898
0.477811
0.472338
0.466283
0.459379
0.45123
0.441191
0.428079
0.409129
0.374943
0.294494
0.738821
0.72875
0.715626
0.700921
0.685651
0.670449
0.655692
0.641594
0.628271
0.61578
0.604132
0.593303
0.583242
0.573895
0.565206
0.557116
0.549568
0.542503
0.535874
0.529639
0.523757
0.518195
0.512919
0.5079
0.503106
0.498503
0.494048
0.489682
0.485326
0.480873
0.476184
0.471085
0.465361
0.458736
0.450809
0.440938
0.427943
0.409069
0.374936
0.294496
0.718474
0.709782
0.69847
0.685651
0.672127
0.658436
0.644927
0.631831
0.619296
0.607416
0.596244
0.585792
0.576044
0.566972
0.558529
0.550664
0.54332
0.536448
0.530005
0.523953
0.518258
0.512892
0.507832
0.503055
0.498542
0.494265
0.490191
0.486262
0.482394
0.478461
0.474292
0.469676
0.464369
0.45808
0.450408
0.440716
0.427833
0.409019
0.374915
0.294457
0.698854
0.691397
0.681649
0.67045
0.658436
0.646062
0.63365
0.621427
0.609562
0.598184
0.587389
0.577245
0.567775
0.558963
0.550764
0.543126
0.535994
0.529324
0.523075
0.517213
0.511711
0.506547
0.501709
0.497185
0.492969
0.489052
0.485411
0.482002
0.478738
0.475472
0.471983
0.467994
0.463216
0.457339
0.449965
0.440467
0.427694
0.408924
0.374816
0.294285
0.680494
0.674044
0.665566
0.655692
0.644928
0.63365
0.62214
0.610609
0.599229
0.588155
0.57756
0.567608
0.55835
0.549765
0.541794
0.534374
0.527453
0.520982
0.514922
0.509242
0.503921
0.498945
0.494311
0.490023
0.486092
0.482532
0.47935
0.476528
0.473994
0.471583
0.469007
0.465855
0.461766
0.456408
0.449391
0.440115
0.427453
0.408713
0.374561
0.293875
0.663546
0.657889
0.650411
0.641594
0.631831
0.621427
0.610609
0.599547
0.588385
0.577299
0.56659
0.556641
0.547501
0.539096
0.531326
0.524114
0.517392
0.511108
0.505221
0.499701
0.494532
0.489707
0.485231
0.481124
0.477419
0.474162
0.471407
0.469194
0.46751
0.466208
0.464913
0.462944
0.459804
0.455133
0.448569
0.43956
0.427026
0.408308
0.374066
0.293116
0.647999
0.642957
0.636259
0.628271
0.619296
0.609562
0.599228
0.588384
0.577084
0.565436
0.553883
0.54364
0.534507
0.526235
0.518648
0.511631
0.505094
0.498978
0.493237
0.487841
0.482775
0.478036
0.473635
0.469604
0.465996
0.462894
0.460418
0.458717
0.457934
0.458075
0.458745
0.458658
0.456978
0.453299
0.447353
0.438695
0.426324
0.407631
0.373251
0.291905
0.633775
0.629211
0.62312
0.61578
0.607416
0.598184
0.588155
0.577299
0.565436
0.552107
0.536822
0.525941
0.516776
0.508646
0.501256
0.494435
0.488076
0.482104
0.476468
0.471136
0.466088
0.46132
0.456843
0.45269
0.448922
0.445644
0.443037
0.441399
0.441225
0.443177
0.447527
0.451588
0.452713
0.450649
0.4456
0.43742
0.425272
0.40662
0.37205
0.290158
0.620774
0.616583
0.610964
0.604131
0.596244
0.587388
0.57756
0.566589
0.553883
0.536822
0.256439
0.24739
0.25366
0.257862
0.260525
0.262213
0.263237
0.263788
0.264004
0.263999
0.263871
0.263721
0.263667
0.263854
0.264491
0.265919
0.268785
0.274624
0.287954
0.321623
0.44304
0.447629
0.44914
0.447817
0.443456
0.435746
0.423845
0.405244
0.370431
0.287826
0.608883
0.604982
0.599735
0.593302
0.585791
0.577244
0.567607
0.55664
0.543639
0.525941
0.247391
0.205784
0.204277
0.205126
0.205821
0.206328
0.206688
0.206934
0.207094
0.207192
0.207254
0.207304
0.207375
0.207501
0.20774
0.208183
0.209011
0.210648
0.2143
0.22324
0.437539
0.444055
0.445881
0.444957
0.441067
0.433746
0.422076
0.403516
0.368392
0.284901
0.597982
0.594309
0.589355
0.583241
0.576044
0.567774
0.55835
0.547501
0.534506
0.516776
0.25366
0.204277
0.200343
0.20024
0.200289
0.200331
0.200365
0.20039
0.200407
0.200419
0.200429
0.200437
0.200445
0.200457
0.200478
0.200515
0.200581
0.200705
0.200963
0.201482
0.432373
0.440637
0.442761
0.442095
0.438529
0.431505
0.420023
0.401479
0.365959
0.281407
0.587953
0.584458
0.57974
0.573894
0.566971
0.558962
0.549764
0.539095
0.526234
0.508646
0.257862
0.205126
0.20024
0.200017
0.200011
0.200013
0.200016
0.200017
0.200018
0.200019
0.200018
0.200019
0.20002
0.20002
0.200021
0.200024
0.200027
0.200032
0.200042
0.200058
0.427495
0.437309
0.439711
0.439234
0.435899
0.429093
0.417749
0.399187
0.363173
0.277397
0.578687
0.575337
0.570818
0.565205
0.558528
0.550763
0.541793
0.531325
0.518648
0.501255
0.260525
0.205821
0.200289
0.200011
0.2
0.2
0.2
0.2
0.2
0.200001
0.200001
0.200001
0.200001
0.200001
0.200001
0.200001
0.200001
0.200001
0.200001
0.200001
0.422834
0.434043
0.436702
0.436377
0.43321
0.426563
0.415314
0.396699
0.360092
0.272939
0.570096
0.566869
0.562523
0.557115
0.550663
0.543126
0.534373
0.524113
0.51163
0.494435
0.262214
0.206328
0.200332
0.200013
0.2
0.2
0.2
0.2
0.2
0.2
0.2
0.2
0.2
0.2
0.2
0.2
0.2
0.2
0.2
0.2
0.418348
0.430826
0.433722
0.433524
0.430487
0.423955
0.412765
0.394067
0.35677
0.268114
0.562102
0.558981
0.554788
0.549566
0.543319
0.535993
0.527452
0.517391
0.505094
0.488075
0.263237
0.206688
0.200365
0.200016
0.2
0.2
0.2
0.2
0.2
0.2
0.2
0.2
0.2
0.2
0.2
0.2
0.2
0.2
0.2
0.2
0.414009
0.427645
0.430762
0.430677
0.427744
0.421297
0.410141
0.391341
0.353253
0.263016
0.554634
0.551606
0.547552
0.542501
0.536447
0.529323
0.520981
0.511107
0.498977
0.482103
0.263788
0.206934
0.20039
0.200017
0.2
0.2
0.2
0.2
0.2
0.2
0.2
0.2
0.2
0.2
0.2
0.2
0.2
0.2
0.2
0.2
0.40979
0.424487
0.427816
0.427835
0.42499
0.418612
0.407476
0.388563
0.349583
0.257761
0.547623
0.544682
0.540758
0.535873
0.530004
0.523074
0.514921
0.50522
0.493236
0.476468
0.264004
0.207094
0.200407
0.200018
0.2
0.2
0.2
0.2
0.2
0.2
0.2
0.2
0.2
0.2
0.2
0.2
0.2
0.2
0.2
0.2
0.405668
0.421337
0.424873
0.424994
0.422232
0.415915
0.404798
0.385774
0.345794
0.252484
0.541014
0.538155
0.53436
0.529637
0.523952
0.517212
0.509241
0.4997
0.48784
0.471136
0.263998
0.207192
0.200419
0.200019
0.200001
0.2
0.2
0.2
0.2
0.2
0.2
0.2
0.2
0.2
0.2
0.2
0.2
0.2
0.2
0.2
0.401621
0.418177
0.421925
0.42215
0.419473
0.413222
0.402133
0.383009
0.341921
0.247347
0.534755
0.531979
0.528314
0.523756
0.518257
0.511709
0.50392
0.494531
0.482774
0.466088
0.263871
0.207254
0.200429
0.200018
0.200001
0.2
0.2
0.2
0.2
0.2
0.2
0.2
0.2
0.2
0.2
0.2
0.2
0.2
0.2
0.2
0.397628
0.414985
0.418956
0.419297
0.416714
0.410545
0.399508
0.38031
0.338
0.242525
0.528797
0.526106
0.522577
0.518193
0.512891
0.506546
0.498944
0.489706
0.478034
0.46132
0.263722
0.207304
0.200437
0.200019
0.200001
0.2
0.2
0.2
0.2
0.2
0.2
0.2
0.2
0.2
0.2
0.2
0.2
0.2
0.2
0.2
0.393666
0.411733
0.41595
0.416423
0.413956
0.407897
0.396952
0.377716
0.33408
0.238192
0.523094
0.520494
0.517112
0.512918
0.507831
0.501707
0.49431
0.48523
0.473634
0.456843
0.263667
0.207375
0.200445
0.20002
0.200001
0.2
0.2
0.2
0.2
0.2
0.2
0.2
0.2
0.2
0.2
0.2
0.2
0.2
0.2
0.2
0.389714
0.408383
0.412881
0.413516
0.411198
0.405292
0.394496
0.375277
0.330235
0.234507
0.5176
0.515101
0.511882
0.507898
0.503054
0.497184
0.490022
0.481123
0.469603
0.452689
0.263854
0.207501
0.200457
0.20002
0.200001
0.2
0.2
0.2
0.2
0.2
0.2
0.2
0.2
0.2
0.2
0.2
0.2
0.2
0.2
0.2
0.385743
0.404883
0.409712
0.410554
0.408436
0.402747
0.392178
0.373047
0.326581
0.231598
0.51227
0.509885
0.506848
0.503105
0.49854
0.492968
0.486091
0.477418
0.465995
0.448921
0.264491
0.207741
0.200478
0.200021
0.200001
0.2
0.2
0.2
0.2
0.2
0.2
0.2
0.2
0.2
0.2
0.2
0.2
0.2
0.2
0.2
0.381722
0.401162
0.406391
0.407509
0.405661
0.400276
0.390035
0.37109
0.323288
0.229569
0.507056
0.5048
0.501971
0.498502
0.494264
0.48905
0.482531
0.474161
0.462893
0.445644
0.265919
0.208183
0.200515
0.200024
0.200001
0.2
0.2
0.2
0.2
0.2
0.2
0.2
0.2
0.2
0.2
0.2
0.2
0.2
0.2
0.2
0.377603
0.397115
0.402835
0.40433
0.402855
0.397888
0.388102
0.369475
0.320597
0.22851
0.501907
0.499799
0.497204
0.494047
0.49019
0.48541
0.479349
0.471405
0.460417
0.443036
0.268785
0.209011
0.200581
0.200027
0.200001
0.2
0.2
0.2
0.2
0.2
0.2
0.2
0.2
0.2
0.2
0.2
0.2
0.2
0.2
0.2
0.373325
0.392586
0.398913
0.400936
0.399979
0.395578
0.386404
0.368268
0.318796
0.228521
0.496765
0.494822
0.492488
0.489681
0.486261
0.482001
0.476527
0.469193
0.458716
0.441399
0.274624
0.210648
0.200705
0.200032
0.200001
0.2
0.2
0.2
0.2
0.2
0.2
0.2
0.2
0.2
0.2
0.2
0.2
0.2
0.2
0.2
0.368792
0.387324
0.394405
0.397182
0.396947
0.393306
0.384936
0.367518
0.318197
0.229726
0.491561
0.489802
0.48775
0.485325
0.482393
0.478737
0.473992
0.467509
0.457933
0.441224
0.287954
0.2143
0.200963
0.200042
0.200001
0.2
0.2
0.2
0.2
0.2
0.2
0.2
0.2
0.2
0.2
0.2
0.2
0.2
0.2
0.2
0.363856
0.380905
0.388923
0.392797
0.39359
0.390969
0.383641
0.367228
0.319056
0.232282
0.486214
0.484654
0.482897
0.480872
0.47846
0.47547
0.471582
0.466206
0.458073
0.443176
0.321622
0.22324
0.201482
0.200058
0.200001
0.2
0.2
0.2
0.2
0.2
0.2
0.2
0.2
0.2
0.2
0.2
0.2
0.2
0.2
0.2
0.358251
0.37261
0.381781
0.387271
0.389566
0.388341
0.382369
0.367318
0.321423
0.236426
0.480623
0.479269
0.47781
0.476183
0.474291
0.471982
0.469005
0.464912
0.458744
0.447526
0.443039
0.437538
0.432372
0.427495
0.422833
0.418347
0.414008
0.409789
0.405668
0.401621
0.397627
0.393666
0.389713
0.385743
0.381721
0.377603
0.373325
0.368792
0.363856
0.358251
0.354973
0.36287
0.37244
0.379908
0.384292
0.384996
0.380815
0.367572
0.324962
0.242225
0.474656
0.473511
0.472336
0.471083
0.469674
0.467993
0.465854
0.462942
0.458657
0.451587
0.447628
0.444054
0.440636
0.437308
0.434042
0.430825
0.427643
0.424485
0.421336
0.418176
0.414984
0.411732
0.408382
0.404882
0.401161
0.397115
0.392586
0.387324
0.380905
0.37261
0.36287
0.360408
0.364884
0.371756
0.377614
0.380454
0.378507
0.367591
0.329192
0.249561
0.468136
0.467193
0.466281
0.465359
0.464367
0.463214
0.461765
0.459803
0.456977
0.452711
0.449139
0.44588
0.44276
0.43971
0.436701
0.433721
0.430761
0.427815
0.424872
0.421924
0.418956
0.415949
0.41288
0.409711
0.40639
0.402834
0.398913
0.394405
0.388923
0.381781
0.37244
0.364884
0.362745
0.365613
0.370625
0.374695
0.374971
0.366799
0.333382
0.258047
0.46081
0.460058
0.459378
0.458734
0.458078
0.457338
0.456407
0.455131
0.453297
0.450648
0.447816
0.444956
0.442094
0.439233
0.436376
0.433523
0.430676
0.427833
0.424993
0.422149
0.419296
0.416422
0.413515
0.410554
0.407508
0.404329
0.400936
0.397182
0.392796
0.387271
0.379908
0.371756
0.365613
0.363539
0.365257
0.368535
0.370073
0.364579
0.336602
0.266942
0.452292
0.451714
0.451229
0.450808
0.450407
0.449964
0.44939
0.448568
0.447352
0.445599
0.443454
0.441066
0.438528
0.435897
0.433209
0.430485
0.427742
0.424989
0.422231
0.419472
0.416713
0.413956
0.411197
0.408435
0.40566
0.402855
0.399978
0.396947
0.39359
0.389565
0.384292
0.377614
0.370625
0.365257
0.362913
0.363347
0.364281
0.360531
0.337872
0.275189
0.441942
0.441516
0.44119
0.440937
0.440714
0.440466
0.440113
0.439559
0.438693
0.437419
0.435745
0.433745
0.431504
0.429092
0.426562
0.423954
0.421296
0.418611
0.415914
0.413221
0.410543
0.407896
0.405291
0.402747
0.400275
0.397887
0.395577
0.393305
0.390969
0.388341
0.384996
0.380454
0.374695
0.368535
0.363347
0.360173
0.358557
0.354764
0.336451
0.281613
0.428581
0.428282
0.428078
0.427942
0.427832
0.427692
0.427452
0.427025
0.426323
0.42527
0.423844
0.422075
0.420021
0.417748
0.415313
0.412763
0.41014
0.407475
0.404797
0.402132
0.399507
0.396951
0.394495
0.392177
0.390034
0.388102
0.386403
0.384936
0.383641
0.382368
0.380814
0.378507
0.374971
0.370073
0.364281
0.358557
0.353621
0.347917
0.332218
0.285357
0.40944
0.409242
0.409128
0.409067
0.409018
0.408923
0.408712
0.408307
0.40763
0.406619
0.405243
0.403515
0.401478
0.399186
0.396698
0.394066
0.39134
0.388562
0.385773
0.383009
0.380309
0.377715
0.375276
0.373046
0.371089
0.369474
0.368267
0.367517
0.367228
0.367318
0.367572
0.36759
0.366799
0.364579
0.360531
0.354764
0.347917
0.33997
0.325477
0.286281
0.375116
0.37499
0.374943
0.374935
0.374914
0.374815
0.37456
0.374065
0.37325
0.37205
0.37043
0.368391
0.365958
0.363172
0.360091
0.356769
0.353252
0.349582
0.345793
0.34192
0.337999
0.33408
0.330235
0.32658
0.323288
0.320597
0.318796
0.318197
0.319056
0.321423
0.324961
0.329192
0.333382
0.336602
0.337872
0.336451
0.332218
0.325477
0.313838
0.283715
0.294648
0.294524
0.294493
0.294496
0.294457
0.294285
0.293874
0.293115
0.291904
0.290157
0.287826
0.2849
0.281407
0.277397
0.272939
0.268114
0.263016
0.257761
0.252484
0.247347
0.242524
0.238192
0.234506
0.231598
0.229569
0.22851
0.228521
0.229726
0.232282
0.236426
0.242225
0.249561
0.258047
0.266942
0.275188
0.281613
0.285357
0.286281
0.283715
0.269367
0.799136
0.795842
0.784985
0.766111
0.743898
0.721768
0.701063
0.682141
0.664993
0.64949
0.635473
0.622778
0.611248
0.600735
0.5911
0.582219
0.573992
0.566335
0.559173
0.552442
0.546083
0.540044
0.534278
0.528736
0.523372
0.518138
0.512983
0.507849
0.502671
0.49737
0.491851
0.485993
0.479637
0.472565
0.464452
0.454766
0.442459
0.424773
0.392452
0.314245
0.795843
0.78907
0.774917
0.75545
0.734244
0.713435
0.693905
0.675923
0.659505
0.644565
0.630984
0.61863
0.60737
0.597071
0.587606
0.578865
0.570758
0.563207
0.556144
0.549505
0.543238
0.537295
0.53163
0.526199
0.52096
0.515866
0.510868
0.505911
0.500926
0.495832
0.490527
0.484883
0.478735
0.471855
0.463917
0.454385
0.442209
0.424634
0.392394
0.314201
0.784989
0.774917
0.759427
0.740894
0.721496
0.702494
0.684485
0.66771
0.652226
0.638008
0.624988
0.613076
0.602168
0.592152
0.582917
0.574373
0.566439
0.559045
0.552128
0.545632
0.539509
0.533716
0.528211
0.522956
0.517912
0.513038
0.508287
0.5036
0.498906
0.494114
0.489111
0.483755
0.477868
0.471219
0.463474
0.454099
0.442048
0.424571
0.392405
0.314235
0.766113
0.75545
0.740894
0.724292
0.707031
0.689965
0.673564
0.658067
0.643582
0.630141
0.61773
0.606302
0.595784
0.586085
0.577118
0.568808
0.561085
0.553885
0.547151
0.540834
0.534894
0.529291
0.523991
0.518963
0.514174
0.509589
0.505161
0.500835
0.49653
0.492143
0.48754
0.482556
0.476998
0.470622
0.463094
0.453882
0.441949
0.424557
0.39245
0.314295
0.743898
0.734243
0.721496
0.707031
0.691853
0.676618
0.661737
0.647456
0.633925
0.621227
0.6094
0.598442
0.588307
0.57893
0.570248
0.562193
0.554704
0.54772
0.541193
0.535081
0.529347
0.523961
0.518895
0.514128
0.509636
0.505392
0.501359
0.49748
0.493669
0.489804
0.48572
0.481214
0.476065
0.470018
0.462736
0.453696
0.441874
0.424552
0.39248
0.314311
0.721767
0.713435
0.702493
0.689965
0.676618
0.662989
0.649443
0.636229
0.623524
0.611455
0.600116
0.589554
0.579758
0.570688
0.562289
0.554496
0.547249
0.540494
0.534186
0.528288
0.52277
0.517608
0.512786
0.508293
0.504118
0.50025
0.496664
0.493314
0.490112
0.486913
0.483503
0.479615
0.474984
0.469336
0.462339
0.453486
0.441773
0.424503
0.392433
0.314197
0.701063
0.693905
0.684485
0.673564
0.661737
0.649443
0.637002
0.624648
0.612567
0.600926
0.589887
0.579588
0.57006
0.561264
0.553134
0.545599
0.538594
0.532069
0.525979
0.520291
0.514981
0.510033
0.505442
0.501208
0.497341
0.493849
0.490737
0.487982
0.485511
0.48316
0.480648
0.477582
0.473622
0.468475
0.461822
0.45318
0.441579
0.424347
0.392239
0.313858
0.682141
0.675923
0.66771
0.658067
0.647456
0.63623
0.624648
0.612908
0.601172
0.589624
0.578545
0.56831
0.558953
0.550387
0.542507
0.535218
0.528451
0.522148
0.516266
0.510772
0.505647
0.500881
0.49648
0.492457
0.488842
0.485677
0.483009
0.480872
0.479247
0.477988
0.476728
0.474813
0.471773
0.46729
0.461071
0.452687
0.441216
0.424014
0.39182
0.31319
0.664993
0.659505
0.652226
0.643582
0.633925
0.623524
0.612567
0.601172
0.589403
0.577361
0.565489
0.555019
0.545729
0.537357
0.529712
0.522667
0.516131
0.510039
0.504345
0.499017
0.494037
0.489399
0.485114
0.481208
0.477729