/*--------------------------------*- C++ -*----------------------------------*\
| =========                 |                                                 |
| \\      /  F ield         | OpenFOAM: The Open Source CFD Toolbox           |
|  \\    /   O peration     | Version:  1.6                                   |
|   \\  /    A nd           | Web:      www.OpenFOAM.org                      |
|    \\/     M anipulation  |                                                 |
\*---------------------------------------------------------------------------*/
FoamFile
{
    version     2.0;
    format      ascii;
    class       volScalarField;
    location    "0.7";
    object      T;
}
// * * * * * * * * * * * * * * * * * * * * * * * * * * * * * * * * * * * * * //

dimensions      [0 0 0 0 0 0 0];

internalField   nonuniform List<scalar> 
400
(
4.99313
7.71167
8.62707
9.0161
9.21658
9.33374
9.40676
9.45278
9.48011
9.4929
9.4929
9.48012
9.45278
9.40677
9.33374
9.21659
9.0161
8.62707
7.71167
4.99313
2.24709
4.93815
6.40759
7.23685
7.73309
8.04535
8.24731
8.37705
8.4549
8.49151
8.49151
8.4549
8.37705
8.24731
8.04535
7.7331
7.23686
6.40759
4.93815
2.24709
1.30419
3.38626
4.82828
5.79065
6.43359
6.86727
7.16009
7.35322
7.47093
7.52676
7.52676
7.47093
7.35322
7.1601
6.86728
6.4336
5.79066
4.82829
3.38626
1.30419
0.887597
2.47442
3.72865
4.66389
5.34339
5.83008
6.1726
6.40485
6.54889
6.61786
6.61786
6.54889
6.40485
6.17261
5.83009
5.3434
4.6639
3.72866
2.47443
0.887599
0.659379
1.89519
2.94803
3.79291
4.44602
4.9371
5.29544
5.54472
5.70197
5.778
5.778
5.70197
5.54472
5.29544
4.9371
4.44603
3.79292
2.94804
1.89519
0.659381
0.514119
1.49893
2.3754
3.11374
3.71072
4.17691
4.5274
4.77668
4.93635
5.01422
5.01422
4.93634
4.77668
4.52739
4.17691
3.71073
3.11375
2.37541
1.49894
0.51412
0.412289
1.21105
1.94092
2.57598
3.10627
3.53247
3.86062
4.09834
4.25258
4.32838
4.32838
4.25258
4.09834
3.86061
3.53246
3.10627
2.57599
1.94092
1.21105
0.41229
0.336289
0.992058
1.60128
2.14305
2.60597
2.98613
3.28433
3.50357
3.64733
3.71844
3.71843
3.64732
3.50356
3.28432
2.98613
2.60596
2.14305
1.60128
0.992061
0.336289
0.277105
0.819643
1.32913
1.789
2.18848
2.52184
2.78707
2.98435
3.11482
3.17969
3.17969
3.11482
2.98434
2.78706
2.52183
2.18847
1.789
1.32913
0.819644
0.277104
0.229599
0.680307
1.10662
1.49542
1.83716
2.12574
2.35784
2.53203
2.64801
2.70591
2.70591
2.64801
2.53203
2.35783
2.12573
1.83715
1.49541
1.10662
0.680306
0.229598
0.190592
0.56539
0.921655
1.24894
1.53906
1.7862
1.98659
2.13802
2.23937
2.29013
2.29013
2.23937
2.13802
1.98658
1.7862
1.53906
1.24893
0.921653
0.565388
0.190591
0.157981
0.469027
0.765713
1.03967
1.28401
1.49349
1.66438
1.79419
1.88141
1.9252
1.9252
1.88141
1.79419
1.66437
1.49349
1.28401
1.03966
0.765711
0.469025
0.15798
0.130294
0.387045
0.632539
0.860055
1.06388
1.23945
1.38332
1.49303
1.56697
1.60417
1.60417
1.56697
1.49303
1.38332
1.23945
1.06388
0.860053
0.632537
0.387043
0.130292
0.10645
0.316341
0.517377
0.704181
0.872071
1.01718
1.13649
1.22774
1.28937
1.32042
1.32042
1.28937
1.22774
1.13649
1.01718
0.872068
0.704178
0.517374
0.316339
0.106449
0.0856199
0.254513
0.416479
0.567262
0.703093
0.820788
0.917788
0.992136
1.04244
1.0678
1.0678
1.04244
0.992135
0.917786
0.820783
0.703087
0.567256
0.416473
0.254509
0.0856178
0.0671433
0.19963
0.326793
0.445334
0.552297
0.645145
0.721801
0.780648
0.820512
0.84063
0.840629
0.820511
0.780647
0.721799
0.645139
0.55229
0.445327
0.326786
0.199625
0.0671406
0.0504721
0.150084
0.245752
0.335016
0.415656
0.485743
0.54368
0.588205
0.618393
0.633636
0.633636
0.618392
0.588203
0.543676
0.485736
0.415649
0.335009
0.245745
0.150081
0.0504707
0.0351373
0.104495
0.171132
0.233349
0.289598
0.338528
0.37901
0.410145
0.431266
0.441935
0.441934
0.431264
0.410142
0.379006
0.338521
0.28959
0.233342
0.171125
0.10449
0.0351361
0.0207231
0.0616319
0.100947
0.137667
0.170881
0.199789
0.223718
0.242131
0.254626
0.26094
0.260939
0.254625
0.242129
0.223716
0.199784
0.170876
0.137663
0.100942
0.061629
0.0207225
0.00684833
0.0203681
0.0333625
0.0455018
0.0564844
0.0660456
0.073962
0.0800548
0.0841903
0.08628
0.0862798
0.0841898
0.0800541
0.0739616
0.0660437
0.0564819
0.0455005
0.0333614
0.0203676
0.00684835
)
;

boundaryField
{
    left
    {
        type            fixedValue;
        value           uniform 0;
    }
    down
    {
        type            fixedValue;
        value           uniform 10;
    }
    up
    {
        type            fixedValue;
        value           uniform 0;
    }
    right
    {
        type            fixedValue;
        value           uniform 0;
    }
    frontAndBack
    {
        type            empty;
    }
}


// ************************************************************************* //
