/*--------------------------------*- C++ -*----------------------------------*\
| =========                 |                                                 |
| \\      /  F ield         | OpenFOAM: The Open Source CFD Toolbox           |
|  \\    /   O peration     | Version:  2.1.0                                 |
|   \\  /    A nd           | Web:      www.OpenFOAM.org                      |
|    \\/     M anipulation  |                                                 |
\*---------------------------------------------------------------------------*/
FoamFile
{
    version     2.0;
    format      ascii;
    class       volScalarField;
    location    "48180";
    object      kr_o;
}
// * * * * * * * * * * * * * * * * * * * * * * * * * * * * * * * * * * * * * //

dimensions      [0 0 0 0 0 0 0];

internalField   nonuniform List<scalar> 
15000
(
5.20001e-14
1.14996e-07
4.01224e-07
3.91562e-06
5.34219e-05
0.000297669
0.000917535
0.00196896
0.0033901
0.0050919
0.0070025
0.00907124
0.0112621
0.0135478
0.0159062
0.0183187
0.020769
0.0232429
0.025728
0.0282137
0.030691
0.0331526
0.0355926
0.0380067
0.0403915
0.0427449
0.0450659
0.0473539
0.0496094
0.0518334
0.0540273
0.0561927
0.0583318
0.0604469
0.0625406
0.0646156
0.0666745
0.0687194
0.0707523
0.0727752
0.0747897
0.0767974
0.0788
0.0807988
0.082795
0.0847898
0.0867838
0.0887775
0.0907712
0.0927647
0.0947576
0.0967493
0.0987389
0.100725
0.102707
0.104683
0.106651
0.108609
0.110556
0.112491
0.114411
0.116315
0.118203
0.120074
0.121927
0.123762
0.125579
0.127378
0.12916
0.130924
0.132671
0.134403
0.13612
0.137823
0.139511
0.141187
0.14285
0.144502
0.146142
0.147772
0.149392
0.151003
0.152604
0.154196
0.155778
0.157351
0.158915
0.16047
0.162014
0.163547
0.165069
0.166579
0.168077
0.169561
0.171031
0.172484
0.173921
0.175339
0.176737
0.178113
0.179467
0.180796
0.182099
0.183374
0.18462
0.185835
0.187017
0.188166
0.189281
0.19036
0.191404
0.192412
0.193386
0.194326
0.195232
0.196107
0.196952
0.197767
0.198556
0.19932
0.200067
0.200807
0.201553
0.202324
0.203145
0.204038
0.205015
0.206051
0.207047
0.207872
0.208498
0.20895
0.209271
0.209592
0.209918
0.21025
0.210595
0.210953
0.211328
0.211723
0.212146
0.212606
0.213117
0.213702
0.214389
0.215224
0.216285
0.217727
0.219936
0.224508
1.1294e-07
4.55128e-07
9.74601e-07
1.07648e-05
9.95766e-05
0.000436835
0.00117157
0.00231807
0.00380332
0.0055451
0.00748037
0.00956476
0.011766
0.0140591
0.0164234
0.0188407
0.0212953
0.0237732
0.0262622
0.0287517
0.0312327
0.033698
0.0361416
0.0385589
0.0409466
0.0433026
0.0456256
0.0479153
0.0501721
0.052397
0.0545915
0.0567574
0.0588967
0.0610116
0.063105
0.0651795
0.0672374
0.069281
0.0713122
0.0733328
0.0753446
0.0773495
0.0793489
0.0813443
0.0833372
0.0853285
0.0873192
0.0893098
0.0913004
0.0932912
0.0952817
0.0972716
0.0992599
0.101246
0.103227
0.105204
0.107173
0.109132
0.111081
0.113018
0.11494
0.116847
0.118738
0.120611
0.122467
0.124305
0.126124
0.127925
0.129709
0.131475
0.133225
0.134959
0.136678
0.138382
0.140072
0.141749
0.143414
0.145067
0.146709
0.148341
0.149963
0.151576
0.153179
0.154773
0.156358
0.157935
0.159502
0.16106
0.162609
0.164148
0.165676
0.167193
0.168699
0.170192
0.171672
0.173138
0.174588
0.176022
0.177438
0.178835
0.180211
0.181567
0.1829
0.184209
0.185495
0.186755
0.18799
0.189199
0.190384
0.191544
0.192681
0.193799
0.194899
0.195984
0.197058
0.198123
0.19918
0.200231
0.201276
0.202318
0.203369
0.204455
0.205618
0.20692
0.208448
0.210301
0.212559
0.215177
0.217757
0.219643
0.220864
0.221567
0.221894
0.222084
0.222146
0.222104
0.222016
0.221904
0.221753
0.221535
0.221236
0.220876
0.220491
0.220136
0.21987
0.21976
0.219896
0.220434
0.221758
0.225455
4.01099e-07
9.54232e-07
4.63394e-06
4.15738e-05
0.000223757
0.000716716
0.00160645
0.00286516
0.00441938
0.00620098
0.00815918
0.0102573
0.0124674
0.0147668
0.0171361
0.0195579
0.0220168
0.0244989
0.0269921
0.0294856
0.0319705
0.0344392
0.0368858
0.0393055
0.041695
0.044052
0.0463753
0.0486646
0.0509204
0.0531437
0.055336
0.0574991
0.0596351
0.0617464
0.0638357
0.0659056
0.0679584
0.0699962
0.0720209
0.0740346
0.076039
0.0780359
0.0800272
0.0820145
0.0839992
0.0859827
0.0879658
0.0899493
0.0919336
0.0939187
0.0959045
0.0978906
0.0998762
0.10186
0.103841
0.105817
0.107787
0.109748
0.111699
0.113638
0.115563
0.117473
0.119367
0.121243
0.123102
0.124942
0.126763
0.128566
0.130352
0.132119
0.13387
0.135605
0.137325
0.13903
0.140721
0.142399
0.144064
0.145718
0.147361
0.148993
0.150616
0.152229
0.153834
0.15543
0.157017
0.158597
0.160168
0.16173
0.163285
0.164829
0.166365
0.16789
0.169406
0.17091
0.172403
0.173884
0.175351
0.176804
0.178242
0.179664
0.181069
0.182458
0.183828
0.185181
0.186516
0.187834
0.189135
0.190421
0.191695
0.19296
0.19422
0.195482
0.196753
0.19804
0.199352
0.200698
0.202087
0.203521
0.205
0.206515
0.208078
0.209735
0.211577
0.213742
0.216431
0.2199
0.224404
0.229995
0.235556
0.238744
0.240524
0.241427
0.241743
0.241637
0.241103
0.240201
0.239191
0.238157
0.237025
0.235684
0.234081
0.232273
0.230362
0.228475
0.226732
0.225239
0.224103
0.223478
0.22374
0.226464
3.62961e-06
1.0072e-05
4.02538e-05
0.000164269
0.00051538
0.00120713
0.00225892
0.0036234
0.0052393
0.0070554
0.00903306
0.0111427
0.0133605
0.0156657
0.01804
0.0204667
0.0229305
0.0254176
0.0279156
0.0304138
0.032903
0.0353755
0.037825
0.0402466
0.042637
0.0449938
0.0473157
0.0496026
0.051855
0.054074
0.0562611
0.0584183
0.0605477
0.0626517
0.0647333
0.0667946
0.068838
0.0708655
0.0728791
0.0748808
0.0768728
0.0788569
0.080835
0.0828092
0.0847811
0.0867521
0.0887235
0.0906961
0.0926706
0.0946472
0.0966258
0.0986062
0.100587
0.102569
0.104548
0.106524
0.108494
0.110457
0.112411
0.114352
0.116281
0.118195
0.120092
0.121971
0.123833
0.125675
0.127499
0.129303
0.13109
0.132858
0.134609
0.136345
0.138064
0.139769
0.141459
0.143136
0.144801
0.146454
0.148097
0.149729
0.151351
0.152965
0.15457
0.156167
0.157756
0.159338
0.160913
0.16248
0.16404
0.165592
0.167135
0.16867
0.170196
0.171714
0.173222
0.17472
0.176207
0.177683
0.179147
0.180599
0.182039
0.183466
0.184882
0.186286
0.18768
0.189067
0.190448
0.191827
0.193211
0.194605
0.196018
0.197464
0.198956
0.200513
0.20216
0.203924
0.205836
0.207921
0.210169
0.2125
0.214885
0.21739
0.220176
0.223492
0.227698
0.233278
0.240801
0.250824
0.260635
0.263831
0.265458
0.266274
0.266561
0.26612
0.264801
0.262533
0.260242
0.25812
0.255902
0.253251
0.249996
0.24629
0.242347
0.238416
0.234731
0.231467
0.228759
0.226759
0.225825
0.227514
4.87027e-05
9.23222e-05
0.000213122
0.000504495
0.00106888
0.00195361
0.00314245
0.0045914
0.00625599
0.00809969
0.0100935
0.0122135
0.0144388
0.0167505
0.019131
0.021564
0.0240342
0.0265278
0.0290323
0.0315367
0.0340314
0.0365084
0.0389613
0.041385
0.0437758
0.0461314
0.0484506
0.0507332
0.05298
0.055192
0.0573711
0.0595193
0.0616389
0.0637324
0.0658024
0.0678511
0.0698808
0.0718933
0.0738908
0.0758756
0.0778497
0.0798156
0.0817753
0.083731
0.0856849
0.0876386
0.0895938
0.0915514
0.0935125
0.0954774
0.0974462
0.0994188
0.101394
0.103371
0.105349
0.107324
0.109296
0.111261
0.113217
0.115163
0.117096
0.119014
0.120915
0.122799
0.124663
0.126508
0.128333
0.130139
0.131926
0.133694
0.135445
0.137179
0.138898
0.140601
0.14229
0.143965
0.145628
0.14728
0.14892
0.150551
0.152172
0.153784
0.155389
0.156987
0.158577
0.160162
0.16174
0.163312
0.164878
0.166437
0.167989
0.169534
0.171073
0.172606
0.174131
0.175648
0.177158
0.17866
0.180154
0.18164
0.183119
0.184591
0.186058
0.187522
0.188985
0.190452
0.191926
0.193414
0.194927
0.196474
0.198074
0.199746
0.20152
0.203436
0.205551
0.207942
0.210705
0.21394
0.21761
0.221293
0.224844
0.228384
0.232189
0.23665
0.242294
0.249839
0.260194
0.275119
0.287606
0.288047
0.289215
0.289767
0.290088
0.289695
0.288097
0.284255
0.280816
0.278192
0.275568
0.272156
0.267445
0.261819
0.255667
0.249379
0.243416
0.238102
0.233623
0.230124
0.227934
0.228579
0.000270846
0.000403742
0.000677064
0.0011664
0.00192443
0.00295922
0.0042478
0.00575776
0.00745858
0.00932423
0.0113323
0.0134628
0.015697
0.0180172
0.0204063
0.0228482
0.0253276
0.0278305
0.0303441
0.032857
0.0353594
0.0378427
0.0403003
0.0427267
0.0451181
0.047472
0.0497874
0.0520641
0.054303
0.0565056
0.058674
0.0608102
0.0629167
0.0649963
0.0670511
0.0690832
0.0710945
0.0730872
0.0750635
0.0770257
0.0789763
0.080918
0.0828533
0.0847848
0.0867149
0.088646
0.0905798
0.0925178
0.0944613
0.096411
0.0983672
0.10033
0.102298
0.10427
0.106245
0.10822
0.110192
0.112161
0.114121
0.116072
0.11801
0.119934
0.12184
0.123729
0.125597
0.127445
0.129272
0.131079
0.132865
0.134633
0.136382
0.138115
0.139831
0.141531
0.143217
0.144889
0.146549
0.148198
0.149835
0.151463
0.153081
0.154692
0.156295
0.157892
0.159483
0.161069
0.162651
0.164227
0.165799
0.167366
0.168928
0.170485
0.172037
0.173586
0.17513
0.176669
0.178204
0.179735
0.181263
0.182787
0.18431
0.185833
0.187358
0.188889
0.190429
0.191985
0.193565
0.195178
0.196839
0.198566
0.200386
0.202334
0.204464
0.206854
0.209622
0.212946
0.217086
0.222375
0.228724
0.234387
0.239223
0.243629
0.248108
0.253203
0.259551
0.267954
0.279402
0.297391
0.303733
0.3165
0.329215
0.347353
0.362977
0.357676
0.334763
0.29362
0.291124
0.290085
0.288954
0.286753
0.28215
0.275819
0.26841
0.260079
0.25189
0.244536
0.23831
0.233354
0.229961
0.229625
0.000835905
0.00108186
0.00151034
0.00216403
0.00306194
0.00419831
0.00555405
0.00710676
0.00883516
0.0107198
0.0127423
0.0148853
0.0171314
0.0194636
0.0218652
0.0243201
0.0268129
0.0293291
0.0318557
0.0343809
0.0368942
0.0393868
0.0418513
0.044282
0.0466748
0.0490271
0.0513378
0.0536071
0.0558362
0.0580269
0.0601816
0.062303
0.0643937
0.066456
0.0684917
0.0705028
0.0724912
0.0744588
0.076408
0.0783416
0.0802622
0.082173
0.0840771
0.0859776
0.0878775
0.0897796
0.0916861
0.0935992
0.0955205
0.0974508
0.099391
0.101341
0.103299
0.105265
0.107237
0.109212
0.111187
0.113159
0.115125
0.117083
0.119028
0.120959
0.122873
0.124767
0.12664
0.128491
0.130321
0.132128
0.133914
0.13568
0.137427
0.139156
0.140868
0.142565
0.144247
0.145915
0.14757
0.149214
0.150847
0.152471
0.154085
0.155692
0.157293
0.158888
0.160478
0.162065
0.163649
0.16523
0.166808
0.168383
0.169956
0.171524
0.173091
0.174657
0.176222
0.177785
0.179348
0.180911
0.182475
0.184041
0.185612
0.187191
0.18878
0.190384
0.192011
0.193667
0.195365
0.197119
0.198948
0.200883
0.202962
0.205244
0.207819
0.210825
0.21448
0.219139
0.225406
0.234253
0.245654
0.253442
0.259005
0.263544
0.267877
0.272644
0.278447
0.285938
0.295833
0.313984
0.358338
0.556837
0.562314
0.562497
0.557364
0.46818
0.464925
0.453319
0.42534
0.402743
0.367061
0.331917
0.289445
0.284389
0.278176
0.268705
0.258857
0.249945
0.24235
0.236205
0.231797
0.230621
0.00179536
0.00213812
0.00268288
0.00344771
0.0044354
0.00563707
0.00703815
0.00862261
0.0103745
0.0122781
0.0143177
0.0164771
0.01874
0.0210896
0.0235093
0.0259829
0.0284948
0.0310301
0.0335753
0.036118
0.0386472
0.0411534
0.0436286
0.0460664
0.0484624
0.0508137
0.0531194
0.05538
0.0575971
0.0597735
0.061912
0.0640157
0.0660874
0.0681288
0.0701416
0.0721273
0.0740875
0.0760243
0.0779401
0.0798379
0.0817211
0.0835933
0.0854584
0.0873201
0.0891821
0.0910477
0.0929201
0.0948019
0.096695
0.0986013
0.100521
0.102455
0.104402
0.106361
0.108329
0.110304
0.112282
0.11426
0.116234
0.1182
0.120155
0.122096
0.124018
0.12592
0.1278
0.129656
0.131488
0.133295
0.13508
0.136844
0.138587
0.140312
0.142019
0.14371
0.145387
0.147049
0.148699
0.150337
0.151964
0.153581
0.15519
0.156792
0.158388
0.159979
0.161568
0.163154
0.164739
0.166324
0.167908
0.169491
0.171075
0.172657
0.174239
0.175823
0.17741
0.178999
0.180592
0.182189
0.183793
0.185406
0.187029
0.188668
0.190327
0.192013
0.193733
0.1955
0.197329
0.199239
0.201261
0.203434
0.205818
0.208503
0.211628
0.21541
0.220207
0.22664
0.235915
0.25042
0.270935
0.279126
0.283984
0.287574
0.290814
0.294258
0.298336
0.303462
0.310133
0.328576
0.396013
0.518367
0.560706
0.562461
0.562475
0.560563
0.559485
0.557659
0.554493
0.5523
0.45538
0.434021
0.343481
0.307449
0.280476
0.271684
0.262493
0.253493
0.24536
0.238503
0.233369
0.231545
0.00308803
0.00349921
0.00411976
0.0049543
0.00599885
0.00724437
0.00867928
0.0102911
0.0120669
0.0139928
0.0160545
0.0182367
0.0205232
0.0228975
0.0253429
0.027843
0.0303816
0.0329438
0.0355152
0.038083
0.0406352
0.0431615
0.0456529
0.0481024
0.0505047
0.0528568
0.0551577
0.0574084
0.0596116
0.0617708
0.0638902
0.0659732
0.0680224
0.0700394
0.0720251
0.0739807
0.0759073
0.0778068
0.0796818
0.0815358
0.0833727
0.0851971
0.0870137
0.0888271
0.0906419
0.0924622
0.0942919
0.0961344
0.0979925
0.0998684
0.101763
0.103678
0.105611
0.10756
0.109525
0.1115
0.113482
0.115468
0.117452
0.119431
0.121399
0.123352
0.125287
0.1272
0.129088
0.13095
0.132785
0.134593
0.136376
0.138135
0.139873
0.141592
0.143293
0.144978
0.146648
0.148303
0.149946
0.151576
0.153195
0.154804
0.156405
0.157999
0.159588
0.161174
0.162758
0.164343
0.165928
0.167515
0.169105
0.170697
0.172292
0.173889
0.175488
0.177092
0.178702
0.180319
0.181943
0.183578
0.185225
0.186886
0.188567
0.190272
0.192007
0.193781
0.195605
0.197494
0.199468
0.201555
0.203795
0.206245
0.208989
0.212156
0.215942
0.220661
0.226829
0.235397
0.248396
0.270481
0.304032
0.309352
0.31304
0.315324
0.316808
0.318067
0.319487
0.321176
0.323447
0.346526
0.448029
0.544545
0.561743
0.562482
0.5625
0.562471
0.562441
0.562379
0.56229
0.562255
0.556489
0.55434
0.527149
0.315588
0.280976
0.272834
0.264312
0.25564
0.24744
0.24025
0.234666
0.23239
0.00462368
0.00508087
0.00575039
0.00663049
0.00771468
0.00899438
0.0104598
0.0121002
0.0139042
0.0158591
0.0179509
0.0201645
0.0224841
0.0248928
0.0273738
0.0299103
0.0324861
0.0350854
0.0376935
0.0402967
0.042882
0.0454378
0.0479542
0.0504225
0.0528367
0.0551928
0.05749
0.0597299
0.0619166
0.0640556
0.0661522
0.0682106
0.0702335
0.072222
0.0741766
0.0760972
0.0779842
0.0798391
0.0816646
0.0834649
0.0852448
0.0870102
0.0887667
0.0905202
0.0922761
0.0940397
0.0958159
0.0976091
0.0994231
0.101261
0.103124
0.105014
0.106929
0.108868
0.110828
0.112805
0.114794
0.11679
0.118788
0.120783
0.122769
0.12474
0.126692
0.128619
0.130519
0.132389
0.134228
0.136036
0.137816
0.13957
0.141301
0.143012
0.144705
0.146382
0.148043
0.14969
0.151324
0.152944
0.154553
0.156152
0.157741
0.159325
0.160904
0.162481
0.164059
0.16564
0.167224
0.168813
0.170407
0.172007
0.173613
0.175226
0.176841
0.178465
0.1801
0.181747
0.183407
0.185082
0.186776
0.188492
0.190236
0.192013
0.193832
0.195704
0.197643
0.199668
0.201806
0.204095
0.206587
0.209359
0.212528
0.216263
0.220824
0.226616
0.234316
0.245212
0.262186
0.291755
0.331764
0.373466
0.409073
0.469579
0.529863
0.550734
0.530339
0.49076
0.391506
0.408724
0.51949
0.561015
0.562458
0.562499
0.5625
0.5625
0.562499
0.562497
0.562495
0.562495
0.562358
0.562292
0.560715
0.288747
0.280807
0.273439
0.265072
0.256887
0.248841
0.241552
0.235725
0.233164
0.00632671
0.00681637
0.00752084
0.00843558
0.00955337
0.0108661
0.012365
0.0140403
0.0158809
0.0178746
0.0200075
0.0222644
0.0246291
0.0270847
0.029614
0.0322001
0.0348264
0.0374766
0.0401356
0.0427885
0.0454212
0.0480208
0.0505752
0.053074
0.0555092
0.0578756
0.0601717
0.0624003
0.0645675
0.0666813
0.0687494
0.0707776
0.0727694
0.0747255
0.0766447
0.0785253
0.0803661
0.082168
0.0839336
0.0856679
0.0873773
0.0890691
0.0907507
0.0924294
0.0941117
0.0958042
0.0975129
0.0992437
0.101002
0.102791
0.104614
0.106473
0.108366
0.110292
0.112247
0.114226
0.116224
0.118234
0.120251
0.122268
0.124278
0.126273
0.128249
0.130197
0.132123
0.134015
0.135867
0.137676
0.13945
0.141195
0.142915
0.144614
0.146295
0.147961
0.149611
0.151247
0.152869
0.154477
0.156072
0.157656
0.15923
0.160798
0.162363
0.163927
0.165495
0.167068
0.168648
0.170237
0.171835
0.173443
0.175061
0.176689
0.178325
0.179971
0.181632
0.183311
0.185009
0.186729
0.188474
0.19025
0.192063
0.19392
0.195832
0.197812
0.199879
0.202059
0.204384
0.206906
0.209693
0.212847
0.216512
0.220903
0.226336
0.233302
0.24263
0.255991
0.277234
0.314596
0.354237
0.436391
0.538545
0.562053
0.562497
0.562459
0.560254
0.55889
0.559959
0.549042
0.560037
0.562397
0.562497
0.5625
0.5625
0.5625
0.5625
0.5625
0.5625
0.5625
0.562498
0.562497
0.518033
0.287966
0.280829
0.2739
0.265758
0.257702
0.249825
0.242542
0.236603
0.233882
0.0081415
0.00865689
0.00939106
0.0103383
0.0114913
0.0128424
0.0143831
0.0161039
0.0179938
0.0200402
0.0222288
0.0245441
0.0269695
0.0294879
0.0320818
0.0347342
0.0374283
0.0401479
0.0428769
0.0455997
0.0483009
0.0509654
0.0535786
0.0561271
0.0585995
0.0609877
0.0632888
0.0655059
0.0676478
0.0697272
0.071757
0.0737468
0.0757013
0.0776205
0.0795006
0.0813364
0.0831241
0.0848628
0.0865553
0.0882076
0.0898284
0.0914276
0.0930148
0.0945989
0.0961881
0.0977901
0.0994125
0.101063
0.102749
0.104475
0.106247
0.108066
0.109931
0.111841
0.113789
0.115772
0.117782
0.119812
0.121854
0.1239
0.125943
0.127972
0.129982
0.131982
0.133949
0.135872
0.137744
0.13956
0.141327
0.143059
0.144765
0.146449
0.148117
0.14977
0.151408
0.153031
0.154639
0.156231
0.157808
0.159371
0.160924
0.16247
0.164013
0.165558
0.167109
0.168669
0.170241
0.171826
0.173426
0.17504
0.176668
0.178312
0.179971
0.18164
0.183329
0.185042
0.18678
0.188548
0.190349
0.19219
0.194079
0.196024
0.19804
0.200144
0.202359
0.204719
0.207268
0.210068
0.213207
0.216808
0.221045
0.226168
0.232539
0.240725
0.251721
0.267671
0.29368
0.339911
0.371632
0.499755
0.561809
0.562495
0.5625
0.5625
0.562483
0.562453
0.562444
0.562128
0.562412
0.562497
0.5625
0.5625
0.5625
0.5625
0.5625
0.5625
0.5625
0.5625
0.5625
0.560737
0.40329
0.288184
0.281084
0.274298
0.26637
0.258406
0.250564
0.243327
0.237354
0.234563
0.0100265
0.0105655
0.0113299
0.0123135
0.0135092
0.0149093
0.0165053
0.0182873
0.0202437
0.0223611
0.0246245
0.0270175
0.0295232
0.0321241
0.0348032
0.0375434
0.0403282
0.0431415
0.0459672
0.0487889
0.0515898
0.0543523
0.0570584
0.0596896
0.0622287
0.0646614
0.0669793
0.0691838
0.0712888
0.0733167
0.0752906
0.0772279
0.0791361
0.0810136
0.0828519
0.0846395
0.0863671
0.0880305
0.0896322
0.0911802
0.092687
0.0941666
0.0956322
0.0970948
0.098564
0.100049
0.101559
0.103104
0.104694
0.106338
0.108042
0.109809
0.111638
0.113526
0.115468
0.117455
0.119481
0.121537
0.123612
0.125699
0.127786
0.129863
0.131949
0.134012
0.136037
0.138008
0.13991
0.141738
0.143493
0.145206
0.14689
0.148554
0.150204
0.151842
0.153468
0.155078
0.15667
0.158244
0.159798
0.161336
0.162861
0.164376
0.165888
0.167404
0.16893
0.17047
0.172028
0.173606
0.175204
0.176822
0.17846
0.180119
0.181798
0.18349
0.185209
0.186958
0.18874
0.190561
0.192426
0.194342
0.196318
0.198369
0.20051
0.202765
0.205162
0.207744
0.210566
0.213703
0.217259
0.221376
0.226247
0.232147
0.239473
0.248857
0.261486
0.280122
0.311619
0.369818
0.387827
0.539178
0.562053
0.562494
0.5625
0.5625
0.5625
0.5625
0.562499
0.562493
0.562498
0.5625
0.5625
0.5625
0.5625
0.5625
0.5625
0.5625
0.5625
0.562499
0.562407
0.55133
0.368625
0.28851
0.281382
0.27464
0.26686
0.259015
0.251241
0.244005
0.238024
0.235219
0.0119486
0.0125121
0.0133114
0.0143402
0.0155911
0.0170563
0.0187267
0.0205913
0.0226371
0.0248493
0.0272115
0.0297065
0.032317
0.0350256
0.0378158
0.0406714
0.043577
0.0465175
0.0494775
0.0524406
0.0553893
0.0583033
0.06116
0.0639339
0.0666678
0.0692709
0.071629
0.0738144
0.0758522
0.077785
0.07966
0.0815098
0.0833486
0.0851728
0.0869642
0.0886982
0.0903538
0.0919207
0.0934001
0.0948034
0.0961499
0.097462
0.0987589
0.100055
0.10136
0.102684
0.104039
0.105438
0.106896
0.108426
0.110036
0.111732
0.113511
0.11537
0.117301
0.119295
0.121342
0.12343
0.12555
0.127689
0.129838
0.132007
0.134187
0.136352
0.138479
0.140541
0.142507
0.144356
0.146091
0.147772
0.14942
0.151052
0.152677
0.154296
0.155906
0.157501
0.159075
0.160625
0.162151
0.163653
0.165136
0.166606
0.168071
0.169543
0.171029
0.172538
0.174072
0.175635
0.177226
0.178845
0.180491
0.182164
0.183864
0.185593
0.187341
0.189129
0.190961
0.192843
0.194782
0.196789
0.198875
0.201057
0.203356
0.205802
0.208431
0.211292
0.214449
0.217989
0.222024
0.226707
0.232243
0.238918
0.247151
0.257634
0.271768
0.293035
0.330171
0.400483
0.493484
0.556739
0.562419
0.562499
0.5625
0.5625
0.5625
0.5625
0.5625
0.5625
0.5625
0.5625
0.5625
0.5625
0.5625
0.5625
0.5625
0.5625
0.5625
0.562498
0.562317
0.550251
0.339068
0.288607
0.281567
0.274895
0.267262
0.259535
0.251843
0.244648
0.238678
0.235869
0.0138795
0.014471
0.0153134
0.0164003
0.0177243
0.0192769
0.0210477
0.0230235
0.0251889
0.0275265
0.0300182
0.0326458
0.0353916
0.0382391
0.0411733
0.0441803
0.0472471
0.0503614
0.0535103
0.0566797
0.059853
0.063009
0.0662348
0.0696495
0.0730869
0.0764057
0.079354
0.0814862
0.0833274
0.0849742
0.0865501
0.0881355
0.0897687
0.0914449
0.0931234
0.0947441
0.0962528
0.0976232
0.0988541
0.0999644
0.10099
0.101977
0.102958
0.103954
0.104973
0.106024
0.107119
0.108277
0.10952
0.110867
0.112329
0.113912
0.115613
0.117425
0.119336
0.121333
0.123403
0.125532
0.127709
0.129919
0.132152
0.134451
0.136778
0.139118
0.141443
0.143706
0.145831
0.14774
0.149443
0.151066
0.152651
0.154226
0.15581
0.157401
0.158991
0.160567
0.162117
0.163635
0.165117
0.166565
0.167981
0.169376
0.170762
0.172157
0.173574
0.175025
0.176515
0.178048
0.179621
0.181233
0.182882
0.184566
0.186286
0.188043
0.189823
0.191656
0.193548
0.195507
0.197543
0.199668
0.201897
0.204253
0.206761
0.209455
0.212379
0.215585
0.219144
0.223143
0.227699
0.232966
0.239149
0.246538
0.255566
0.266991
0.282457
0.306257
0.348698
0.42609
0.530404
0.559858
0.562462
0.5625
0.5625
0.5625
0.5625
0.5625
0.5625
0.5625
0.5625
0.5625
0.5625
0.5625
0.5625
0.5625
0.5625
0.5625
0.5625
0.562496
0.562311
0.554723
0.297586
0.288112
0.281574
0.275077
0.267616
0.260013
0.252408
0.245269
0.23933
0.236523
0.0157942
0.016419
0.0173159
0.0184789
0.0199004
0.0215709
0.0234773
0.0256028
0.0279275
0.0304302
0.0330902
0.0358881
0.0388072
0.0418329
0.0449535
0.0481595
0.0514431
0.0547981
0.0582184
0.0616972
0.0652245
0.0689926
0.0732311
0.0778418
0.0828902
0.0880491
0.0929062
0.0954343
0.0968447
0.0977551
0.0985598
0.0994765
0.100621
0.101998
0.103511
0.104991
0.106273
0.107286
0.108022
0.108514
0.108844
0.109128
0.109445
0.109829
0.110281
0.1108
0.111397
0.112098
0.112937
0.113944
0.115137
0.116517
0.118077
0.1198
0.121665
0.123653
0.125743
0.127919
0.130165
0.132469
0.134846
0.137327
0.139892
0.142543
0.145264
0.14799
0.150529
0.152594
0.154237
0.155736
0.157184
0.158642
0.160144
0.161689
0.163255
0.164808
0.166326
0.167795
0.16921
0.170568
0.17187
0.173129
0.174366
0.175613
0.176896
0.178236
0.179639
0.181109
0.182641
0.184229
0.185868
0.187556
0.189291
0.191076
0.192912
0.194789
0.196749
0.198801
0.200958
0.203234
0.20565
0.20823
0.211005
0.214012
0.217296
0.22091
0.22492
0.229409
0.234487
0.240302
0.247055
0.255039
0.264703
0.276885
0.293536
0.319862
0.367354
0.447121
0.548824
0.561998
0.562492
0.5625
0.5625
0.5625
0.5625
0.5625
0.5625
0.5625
0.5625
0.5625
0.5625
0.5625
0.5625
0.5625
0.5625
0.5625
0.5625
0.562492
0.562011
0.540052
0.296491
0.287997
0.281699
0.275308
0.267989
0.260494
0.252972
0.245889
0.239985
0.237183
0.0176735
0.0183412
0.0193086
0.0205691
0.0221133
0.0239284
0.0260317
0.0283652
0.0309027
0.0336218
0.036499
0.0395145
0.042654
0.0459075
0.0492699
0.0527398
0.0563197
0.0600159
0.0638384
0.0677983
0.0720597
0.077293
0.0835351
0.0908919
0.0996567
0.108384
0.117866
0.121218
0.121694
0.120631
0.119488
0.118795
0.118878
0.119797
0.121508
0.124163
0.125253
0.125679
0.125425
0.124546
0.123236
0.121879
0.12071
0.119783
0.11906
0.118494
0.118077
0.117844
0.117865
0.118195
0.118857
0.119845
0.121131
0.122675
0.12444
0.126387
0.128485
0.130708
0.133038
0.135461
0.138041
0.140783
0.143721
0.146902
0.150377
0.154106
0.157669
0.160022
0.161543
0.162753
0.163896
0.165102
0.166445
0.167929
0.169493
0.171045
0.172537
0.17395
0.175271
0.176489
0.177598
0.178607
0.179556
0.180514
0.181534
0.182654
0.183887
0.185232
0.186677
0.188209
0.189816
0.191491
0.19323
0.195037
0.196919
0.198845
0.200882
0.203049
0.205357
0.207824
0.210473
0.213331
0.216431
0.21981
0.223511
0.227576
0.232057
0.237021
0.242565
0.24883
0.25602
0.264432
0.274549
0.287323
0.305101
0.334186
0.38692
0.463842
0.556719
0.562449
0.5625
0.5625
0.5625
0.5625
0.5625
0.5625
0.5625
0.5625
0.5625
0.5625
0.5625
0.5625
0.5625
0.5625
0.5625
0.5625
0.5625
0.562486
0.560953
0.459595
0.296696
0.288258
0.282004
0.275648
0.268428
0.261017
0.253562
0.246524
0.240648
0.237848
0.0195036
0.0202322
0.0212978
0.022694
0.0244089
0.0264247
0.0287396
0.0313079
0.0340776
0.0371437
0.0403547
0.0436485
0.0470674
0.0506129
0.0542917
0.0581177
0.0621133
0.0663101
0.0707484
0.0754792
0.0817189
0.0898839
0.100534
0.112344
0.126658
0.137486
0.151002
0.153596
0.153303
0.149132
0.14532
0.142551
0.141463
0.142402
0.146958
0.153712
0.156572
0.156738
0.155337
0.15229
0.147818
0.14327
0.139381
0.136201
0.133503
0.131077
0.128842
0.126864
0.125319
0.124352
0.124014
0.124274
0.125056
0.126274
0.127846
0.129701
0.131782
0.13405
0.136478
0.139055
0.141878
0.144977
0.14844
0.152409
0.157103
0.16262
0.168189
0.170662
0.171923
0.172481
0.173023
0.17376
0.174857
0.176339
0.178363
0.18022
0.18175
0.183138
0.184368
0.185413
0.186236
0.186822
0.187226
0.187634
0.188155
0.188865
0.18979
0.190915
0.192209
0.19364
0.195181
0.196814
0.198535
0.200348
0.202263
0.204295
0.206405
0.20869
0.211163
0.213844
0.216755
0.219927
0.223392
0.227184
0.231333
0.235864
0.240792
0.246162
0.252058
0.258618
0.266063
0.274719
0.285122
0.298381
0.317373
0.349882
0.409196
0.476388
0.558908
0.562463
0.5625
0.5625
0.5625
0.5625
0.5625
0.5625
0.5625
0.5625
0.5625
0.5625
0.5625
0.5625
0.5625
0.5625
0.5625
0.5625
0.562497
0.562109
0.543945
0.389703
0.297083
0.288678
0.28244
0.276106
0.268961
0.261612
0.254202
0.247189
0.241323
0.238519
0.0212692
0.0220813
0.0232815
0.0248653
0.0268181
0.0291132
0.0317251
0.0346045
0.0376862
0.0410239
0.0445358
0.0484298
0.0522459
0.056175
0.0602776
0.0645998
0.0691993
0.0741518
0.0795639
0.0864373
0.0961992
0.11058
0.128385
0.142794
0.160204
0.165998
0.170771
0.195118
0.202076
0.161511
0.159123
0.157112
0.156605
0.158805
0.167493
0.179573
0.183288
0.185563
0.185088
0.182035
0.175144
0.167652
0.161564
0.156761
0.152552
0.148396
0.144063
0.139685
0.135759
0.132749
0.130833
0.129959
0.129973
0.1307
0.131984
0.133699
0.135748
0.138065
0.140611
0.143382
0.146491
0.150003
0.154074
0.158983
0.165244
0.173032
0.180717
0.182631
0.18354
0.183002
0.182785
0.182947
0.183838
0.185626
0.189771
0.192437
0.194327
0.195804
0.19706
0.198028
0.198594
0.198614
0.19807
0.19754
0.197215
0.197259
0.197713
0.198526
0.199618
0.200917
0.202368
0.203935
0.205607
0.207392
0.209318
0.211408
0.213625
0.216034
0.218693
0.221614
0.224815
0.228323
0.232167
0.236378
0.240976
0.245958
0.251273
0.256936
0.263021
0.269672
0.277179
0.285924
0.29651
0.310244
0.330712
0.367865
0.437759
0.486205
0.559643
0.562469
0.5625
0.5625
0.5625
0.5625
0.5625
0.5625
0.5625
0.5625
0.5625
0.5625
0.5625
0.5625
0.5625
0.5625
0.562498
0.562468
0.561747
0.551724
0.492786
0.346204
0.297268
0.289106
0.282962
0.276685
0.26961
0.262306
0.254915
0.247897
0.242012
0.239194
0.0229585
0.0238826
0.0252662
0.0271117
0.0294017
0.0320915
0.0351204
0.0384161
0.0419083
0.045619
0.0495231
0.0537183
0.0582442
0.0629282
0.0676362
0.0726746
0.0781783
0.0843233
0.0913787
0.103041
0.119493
0.143398
0.166241
0.175435
0.182729
0.329887
0.531675
0.55074
0.527908
0.492202
0.220336
0.169438
0.168475
0.172307
0.188129
0.196154
0.245613
0.404289
0.412937
0.24489
0.185993
0.18037
0.176263
0.173161
0.170087
0.166256
0.161156
0.154774
0.148146
0.142627
0.138762
0.136512
0.135615
0.13578
0.136753
0.138337
0.140382
0.142783
0.145485
0.148486
0.151878
0.155762
0.160359
0.166105
0.173936
0.183298
0.189474
0.204309
0.215405
0.191555
0.19099
0.190708
0.191597
0.194985
0.204176
0.20929
0.2114
0.213126
0.215472
0.216636
0.21719
0.216554
0.213952
0.211565
0.209643
0.208514
0.208241
0.208638
0.209495
0.210653
0.212005
0.213481
0.215054
0.216744
0.218625
0.220748
0.223133
0.225671
0.228491
0.231595
0.234998
0.23873
0.242836
0.247366
0.252364
0.257818
0.263479
0.269332
0.275444
0.281968
0.289393
0.298193
0.309018
0.323373
0.345721
0.388562
0.471126
0.555619
0.562371
0.562499
0.5625
0.5625
0.5625
0.5625
0.5625
0.5625
0.5625
0.5625
0.5625
0.5625
0.5625
0.5625
0.5625
0.5625
0.562498
0.56243
0.560456
0.54089
0.45537
0.305722
0.296885
0.289499
0.283587
0.277417
0.270414
0.263133
0.255695
0.248659
0.242738
0.239882
0.0245643
0.0256355
0.0272693
0.0294875
0.0322712
0.0355373
0.0391583
0.043022
0.0470561
0.0512685
0.0556659
0.0603058
0.0652881
0.0709684
0.0769849
0.0831278
0.0900773
0.0982825
0.110872
0.133402
0.156602
0.185275
0.194619
0.299492
0.524633
0.557511
0.56209
0.562374
0.562156
0.561686
0.547925
0.249968
0.185914
0.191327
0.212406
0.433685
0.559847
0.561348
0.560619
0.544461
0.231649
0.188598
0.18685
0.186227
0.185335
0.18323
0.178834
0.17101
0.160942
0.152521
0.146663
0.143113
0.141406
0.141112
0.141884
0.143449
0.145597
0.148175
0.151089
0.154338
0.157946
0.162033
0.16686
0.173069
0.182237
0.192202
0.278355
0.548414
0.55346
0.524703
0.26046
0.200542
0.200453
0.204982
0.215591
0.30346
0.534313
0.500693
0.556391
0.561171
0.533122
0.28731
0.222622
0.220858
0.219031
0.217866
0.217761
0.2184
0.219491
0.220845
0.222337
0.223876
0.225414
0.226987
0.228807
0.230958
0.233446
0.2362
0.239174
0.242426
0.24598
0.249887
0.254228
0.259125
0.264741
0.271175
0.277353
0.283432
0.289488
0.295629
0.303016
0.312174
0.323671
0.339268
0.36469
0.414224
0.501023
0.560222
0.56247
0.5625
0.5625
0.5625
0.5625
0.5625
0.5625
0.5625
0.5625
0.5625
0.5625
0.5625
0.5625
0.5625
0.5625
0.5625
0.562499
0.562461
0.560359
0.544905
0.465192
0.305301
0.297141
0.290188
0.28445
0.278384
0.271327
0.264077
0.256633
0.24954
0.24353
0.240585
0.0260827
0.0273423
0.0293192
0.0320869
0.0356325
0.0397878
0.0442783
0.0489362
0.0536962
0.0585735
0.0636099
0.068887
0.0745585
0.0809218
0.0886923
0.097265
0.106869
0.119318
0.150614
0.190188
0.20956
0.221419
0.493082
0.554171
0.561786
0.562438
0.562496
0.562499
0.562497
0.562494
0.562311
0.508645
0.328266
0.219748
0.279146
0.525079
0.561969
0.562492
0.56249
0.562337
0.536296
0.219395
0.301117
0.367176
0.342066
0.255702
0.210146