/*--------------------------------*- C++ -*----------------------------------*\
| =========                 |                                                 |
| \\      /  F ield         | OpenFOAM: The Open Source CFD Toolbox           |
|  \\    /   O peration     | Version:  2.1.0                                 |
|   \\  /    A nd           | Web:      www.OpenFOAM.org                      |
|    \\/     M anipulation  |                                                 |
\*---------------------------------------------------------------------------*/
FoamFile
{
    version     2.0;
    format      ascii;
    class       volScalarField;
    location    "48180";
    object      kr_w;
}
// * * * * * * * * * * * * * * * * * * * * * * * * * * * * * * * * * * * * * //

dimensions      [0 0 0 0 0 0 0];

internalField   nonuniform List<scalar> 
15000
(
0.5625
0.562498
0.562493
0.562436
0.561628
0.557701
0.54815
0.53317
0.514978
0.495697
0.476606
0.458321
0.441089
0.424974
0.409957
0.395986
0.382991
0.370902
0.359648
0.349162
0.33938
0.330242
0.321693
0.313681
0.306159
0.299084
0.292416
0.286117
0.280155
0.274499
0.269121
0.263996
0.2591
0.254412
0.249914
0.245587
0.241415
0.237383
0.23348
0.229694
0.226016
0.222437
0.21895
0.215548
0.212224
0.208975
0.205795
0.202681
0.199629
0.196639
0.193707
0.190833
0.188017
0.185257
0.182553
0.179905
0.177314
0.17478
0.172303
0.169884
0.167521
0.165215
0.162965
0.160769
0.158627
0.156537
0.154498
0.152508
0.150565
0.148667
0.146812
0.144998
0.143224
0.141487
0.139786
0.138119
0.136485
0.134882
0.133309
0.131764
0.130247
0.128756
0.127291
0.125851
0.124436
0.123044
0.121676
0.120332
0.11901
0.117712
0.116437
0.115185
0.113956
0.112751
0.11157
0.110413
0.109281
0.108175
0.107094
0.10604
0.105013
0.104014
0.103043
0.102101
0.101189
0.100306
0.0994538
0.0986322
0.0978413
0.0970809
0.0963508
0.0956502
0.0949783
0.094334
0.093716
0.0931231
0.0925541
0.0920078
0.0914824
0.0909755
0.0904827
0.0899972
0.0895098
0.0890082
0.0884778
0.0879038
0.087279
0.0866214
0.0859934
0.0854769
0.0850863
0.0848052
0.0846062
0.0844075
0.0842067
0.0840017
0.0837901
0.0835705
0.0833412
0.0830999
0.0828428
0.0825638
0.0822543
0.0819022
0.0814901
0.0809916
0.0803619
0.0795135
0.0782289
0.07563
0.562498
0.562493
0.562484
0.562324
0.560879
0.555506
0.544397
0.528499
0.510069
0.490947
0.472183
0.454266
0.437387
0.42159
0.406853
0.393123
0.380338
0.36843
0.357334
0.346984
0.337322
0.328289
0.319834
0.311906
0.304461
0.297455
0.290851
0.284611
0.278704
0.273099
0.267768
0.262687
0.257833
0.253186
0.248725
0.244433
0.240294
0.236294
0.232422
0.228667
0.225018
0.221468
0.218008
0.214632
0.211334
0.208109
0.204952
0.20186
0.19883
0.195859
0.192946
0.190089
0.187288
0.184542
0.181851
0.179215
0.176635
0.174111
0.171643
0.169232
0.166877
0.164578
0.162334
0.160145
0.158009
0.155926
0.153893
0.151909
0.149971
0.148079
0.14623
0.144422
0.142653
0.140921
0.139226
0.137564
0.135935
0.134337
0.132769
0.131229
0.129716
0.12823
0.126769
0.125333
0.123921
0.122532
0.121167
0.119824
0.118504
0.117207
0.115932
0.11468
0.11345
0.112242
0.111058
0.109896
0.108759
0.107645
0.106556
0.105492
0.104452
0.103439
0.102451
0.101488
0.100552
0.0996421
0.0987578
0.0978989
0.0970645
0.0962535
0.0954642
0.0946947
0.093943
0.0932065
0.092483
0.0917706
0.0910679
0.0903745
0.08969
0.0890121
0.088333
0.0876365
0.0868961
0.0860733
0.0851174
0.0839707
0.082592
0.0810193
0.0794956
0.0783983
0.0776951
0.0772927
0.077106
0.0769979
0.0769631
0.0769869
0.077037
0.0771006
0.0771866
0.0773112
0.0774817
0.0776884
0.0779092
0.0781138
0.0782673
0.0783306
0.0782522
0.0779421
0.0771838
0.075101
0.562493
0.562484
0.562424
0.561821
0.558879
0.551182
0.538174
0.521451
0.503029
0.484326
0.466113
0.448751
0.432379
0.417028
0.402675
0.389276
0.376775
0.365111
0.354227
0.344062
0.334563
0.325675
0.317349
0.309539
0.3022
0.295293
0.288779
0.282624
0.276795
0.271264
0.266002
0.260986
0.256194
0.251604
0.247199
0.242959
0.238871
0.23492
0.231094
0.227384
0.223779
0.220271
0.216852
0.213515
0.210254
0.207064
0.203941
0.20088
0.197878
0.194934
0.192046
0.189211
0.18643
0.183702
0.181027
0.178406
0.175839
0.173327
0.170869
0.168468
0.166122
0.163831
0.161595
0.159414
0.157286
0.155211
0.153185
0.151209
0.14928
0.147395
0.145554
0.143753
0.141992
0.140268
0.13858
0.136926
0.135305
0.133714
0.132152
0.130619
0.129113
0.127632
0.126177
0.124746
0.123339
0.121954
0.120592
0.119252
0.117933
0.116637
0.115362
0.114109
0.112877
0.111666
0.110477
0.10931
0.108165
0.107042
0.105942
0.104864
0.10381
0.102777
0.101767
0.10078
0.0998141
0.0988694
0.0979446
0.0970383
0.0961483
0.095272
0.0944059
0.0935462
0.092688
0.091826
0.0909545
0.090068
0.0891623
0.0882353
0.087289
0.0863286
0.0853479
0.0843192
0.0831892
0.0818778
0.0802753
0.0782498
0.0756883
0.0726125
0.0696642
0.068023
0.0671213
0.0666681
0.0665106
0.0665635
0.0668306
0.0672844
0.0677955
0.0683227
0.0689037
0.0695978
0.0704357
0.0713916
0.0724143
0.0734374
0.0743936
0.0752212
0.0758571
0.0762087
0.0760611
0.0745414
0.562441
0.562335
0.561843
0.559834
0.554281
0.543879
0.529281
0.512187
0.494136
0.47611
0.45864
0.441979
0.426232
0.411423
0.397536
0.384536
0.372377
0.36101
0.350383
0.340444
0.331144
0.322435
0.31427
0.306606
0.299402
0.292619
0.28622
0.280173
0.274445
0.269009
0.263836
0.258905
0.254193
0.249679
0.245345
0.241175
0.237152
0.233265
0.229502
0.225851
0.222304
0.218852
0.215487
0.212201
0.208989
0.205845
0.202764
0.199743
0.196779
0.193868
0.19101
0.188203
0.185446
0.18274
0.180084
0.17748
0.174928
0.172429
0.169983
0.167592
0.165256
0.162975
0.160749
0.158577
0.156458
0.154392
0.152376
0.150409
0.14849
0.146615
0.144784
0.142994
0.141242
0.139528
0.13785
0.136205
0.134593
0.133011
0.131459
0.129934
0.128436
0.126963
0.125515
0.124091
0.122689
0.121309
0.119951
0.118614
0.117297
0.116002
0.114728
0.113473
0.112239
0.111025
0.10983
0.108656
0.107502
0.106368
0.105255
0.104162
0.103088
0.102034
0.100998
0.0999801
0.0989789
0.0979928
0.0970196
0.0960562
0.0950991
0.0941434
0.0931831
0.0922107
0.0912167
0.0901895
0.089115
0.0879766
0.0867575
0.0854458
0.084052
0.0826281
0.0811937
0.0797107
0.0780907
0.0762005
0.0738624
0.0708587
0.0669821
0.0621119
0.0576536
0.0562634
0.0555672
0.055221
0.0550998
0.0552861
0.0558475
0.0568242
0.0578264
0.0587683
0.0597676
0.0609814
0.0625019
0.0642743
0.0662091
0.06819
0.0700949
0.0718211
0.0732826
0.0743787
0.0748953
0.0739629
0.561705
0.560996
0.55905
0.55445
0.545904
0.533379
0.517998
0.50112
0.483783
0.466636
0.450037
0.434173
0.419126
0.404921
0.391555
0.379002
0.367229
0.356196
0.34586
0.336179
0.327108
0.318604
0.310626
0.303132
0.296086
0.28945
0.283189
0.277271
0.271664
0.266342
0.261279
0.25645
0.251835
0.247413
0.243168
0.239081
0.235141
0.231333
0.227646
0.22407
0.220595
0.217212
0.213913
0.210691
0.207539
0.204452
0.201424
0.198452
0.195532
0.192662
0.189841
0.187066
0.184338
0.181657
0.179023
0.176438
0.173902
0.171418
0.168985
0.166606
0.16428
0.162009
0.159793
0.157631
0.155523
0.153467
0.151463
0.149508
0.1476
0.145738
0.143919
0.14214
0.140401
0.138699
0.137033
0.1354
0.133799
0.132229
0.130687
0.129173
0.127685
0.126222
0.124782
0.123366
0.121971
0.120597
0.119244
0.11791
0.116597
0.115303
0.114028
0.112773
0.111536
0.110317
0.109117
0.107934
0.10677
0.105624
0.104496
0.103384
0.102289
0.10121
0.100144
0.099092
0.0980504
0.0970169
0.0959879
0.0949589
0.0939239
0.0928754
0.0918033
0.0906945
0.0895314
0.0882901
0.0869383
0.085433
0.0837224
0.0817589
0.079582
0.0774494
0.0754419
0.073487
0.0714363
0.0690973
0.0662356
0.062576
0.0578475
0.0515854
0.0468045
0.0466426
0.0462168
0.0460163
0.0459004
0.0460426
0.0466244
0.048049
0.0493552
0.050372
0.0514066
0.0527797
0.0547272
0.0571352
0.059874
0.062794
0.0656799
0.0683505
0.0706769
0.0725429
0.0737329
0.0733806
0.558128
0.556025
0.551787
0.544473
0.533776
0.520271
0.504957
0.488769
0.472382
0.456229
0.440568
0.425543
0.411231
0.397664
0.384846
0.372768
0.361407
0.350733
0.340713
0.331311
0.32249
0.314212
0.30644
0.299138
0.292269
0.285799
0.279695
0.273925
0.268458
0.263269
0.258331
0.253622
0.24912
0.244807
0.240664
0.236677
0.232832
0.229118
0.225523
0.222035
0.218647
0.215347
0.212129
0.208983
0.205903
0.202884
0.19992
0.197006
0.194139
0.191318
0.188539
0.185802
0.183107
0.180455
0.177845
0.175281
0.172763
0.170294
0.167875
0.165507
0.163193
0.160933
0.158727
0.156576
0.154479
0.152435
0.150443
0.148502
0.146608
0.14476
0.142955
0.141191
0.139466
0.137779
0.136127
0.134508
0.132921
0.131364
0.129835
0.128334
0.126857
0.125406
0.123977
0.12257
0.121183
0.119817
0.118469
0.117141
0.11583
0.114538
0.113263
0.112007
0.110767
0.109544
0.108337
0.107146
0.105971
0.104811
0.103665
0.102534
0.101415
0.100308
0.0992097
0.098119
0.0970325
0.0959463
0.0948552
0.0937526
0.0926298
0.0914751
0.0902731
0.089002
0.0876309
0.086115
0.0843889
0.082358
0.0798896
0.0768326
0.0733016
0.070275
0.0677793
0.0655744
0.0633994
0.0610036
0.0581316
0.0545139
0.0499006
0.0433245
0.0411862
0.0371429
0.0334387
0.0286601
0.0249739
0.0261828
0.0319163
0.0446391
0.0455275
0.0459015
0.0463117
0.0471186
0.0488447
0.051307
0.0543233
0.0578984
0.0616129
0.0651286
0.0682441
0.0708188
0.0726309
0.0728122
0.549376
0.545712
0.539529
0.530543
0.518993
0.505518
0.490855
0.47563
0.4603
0.445177
0.430461
0.416277
0.402702
0.389776
0.377516
0.365922
0.354984
0.344681
0.334989
0.325879
0.317321
0.309283
0.301732
0.294635
0.287959
0.281672
0.275741
0.270136
0.264827
0.259788
0.254992
0.250418
0.246044
0.241852
0.237826
0.233953
0.23022
0.226614
0.223124
0.219741
0.216454
0.213252
0.210128
0.207072
0.204078
0.201139
0.198249
0.195404
0.1926
0.189834
0.187105
0.184411
0.181754
0.179133
0.176551
0.174009
0.17151
0.169057
0.166652
0.164296
0.161992
0.159742
0.157547
0.155407
0.153322
0.151291
0.149313
0.147386
0.145508
0.143677
0.141889
0.140142
0.138434
0.136763
0.135128
0.133525
0.131954
0.130413
0.128899
0.127412
0.125951
0.124512
0.123096
0.1217
0.120324
0.118966
0.117626
0.116303
0.114997
0.113707
0.112433
0.111176
0.109933
0.108705
0.107491
0.106291
0.105103
0.103928
0.102765
0.101611
0.100467
0.0993294
0.0981961
0.0970639
0.0959286
0.094785
0.0936259
0.0924422
0.0912216
0.0899474
0.0885959
0.0871334
0.0855096
0.0836488
0.0814356
0.0786904
0.0751282
0.0703454
0.0645828
0.0608931
0.0583738
0.056387
0.0545458
0.0525814
0.0502722
0.0474202
0.0438638
0.0379132
0.0260294
0.000352249
1.13631e-05
1.68849e-07
0.000318907
0.00792497
0.00829529
0.00968185
0.0134931
0.0171243
0.0240708
0.0326905
0.0461331
0.0479986
0.0503783
0.0542002
0.0584399
0.0625259
0.0662079
0.0693272
0.071645
0.0722748
0.535547
0.530889
0.523764
0.514284
0.50285
0.490001
0.476271
0.462104
0.447837
0.433715
0.419907
0.406534
0.393671
0.38137
0.369655
0.35854
0.348021
0.338089
0.328727
0.319913
0.311624
0.303833
0.296511
0.289629
0.283158
0.277066
0.271323
0.265899
0.260763
0.255889
0.25125
0.246825
0.242593
0.238536
0.234642
0.230896
0.227288
0.223805
0.220437
0.217174
0.214003
0.210916
0.207901
0.204951
0.202056
0.199211
0.196408
0.193643
0.190911
0.18821
0.185538
0.182893
0.180278
0.177693
0.17514
0.172622
0.170143
0.167706
0.165313
0.162968
0.160675
0.158434
0.156248
0.154119
0.152046
0.150028
0.148066
0.146156
0.144296
0.142483
0.140714
0.138987
0.137299
0.135647
0.13403
0.132447
0.130894
0.12937
0.127875
0.126405
0.12496
0.123538
0.122136
0.120754
0.11939
0.118043
0.116712
0.115396
0.114095
0.112807
0.111534
0.110276
0.109032
0.107799
0.106577
0.105367
0.104167
0.102976
0.101793
0.100617
0.0994452
0.0982754
0.0971042
0.0959274
0.0947397
0.0935341
0.0923012
0.0910288
0.0897001
0.0882914
0.086769
0.0850828
0.083158
0.0808805
0.0780729
0.074444
0.0694779
0.0623018
0.0532784
0.0500078
0.0481507
0.0468164
0.0456388
0.0444145
0.0430005
0.0412758
0.0391171
0.0336174
0.0183137
0.00311253
0.000110226
2.39422e-06
1.51381e-06
0.000119054
0.000185955
0.000300327
0.000501711
0.000643625
0.00942786
0.0122349
0.0296332
0.0399742
0.0494857
0.0529719
0.0568419
0.0608696
0.0647263
0.068146
0.0708106
0.0717797
0.51867
0.513667
0.506412
0.497169
0.486336
0.474351
0.461621
0.448487
0.435219
0.422025
0.40906
0.39644
0.384246
0.372534
0.361339
0.350682
0.340568
0.330997
0.321957
0.313435
0.305411
0.297866
0.290774
0.284113
0.277853
0.271966
0.266423
0.261193
0.256246
0.251552
0.247085
0.242823
0.238745
0.234837
0.231086
0.227482
0.224013
0.220669
0.21744
0.214312
0.211276
0.20832
0.205432
0.202604
0.199825
0.197089
0.194387
0.191715
0.189067
0.186441
0.183834
0.181246
0.178678
0.176132
0.173611
0.171118
0.168659
0.166236
0.163856
0.161521
0.159235
0.157002
0.154824
0.152704
0.150642
0.148639
0.146693
0.144801
0.142962
0.14117
0.139424
0.137719
0.136053
0.134423
0.132827
0.131265
0.129733
0.12823
0.126755
0.125305
0.12388
0.122476
0.121093
0.119727
0.118378
0.117044
0.115723
0.114416
0.11312
0.111837
0.110566
0.109306
0.108059
0.106821
0.105592
0.104372
0.103159
0.101951
0.100748
0.0995479
0.0983473
0.0971432
0.0959316
0.0947072
0.0934632
0.0921907
0.0908777
0.089508
0.0880592
0.086499
0.084781
0.0828368
0.0805646
0.0778115
0.07434
0.069747
0.0632615
0.0534652
0.0410878
0.0393649
0.0382055
0.0375014
0.0370496
0.0366694
0.0362447
0.0357446
0.0350809
0.0288658
0.0103499
0.00116143
4.63742e-05
1.07908e-06
3.01837e-08
1.76128e-06
3.61327e-06
7.4259e-06
1.28395e-05
1.49652e-05
0.00037427
0.000511578
0.00242089
0.0374206
0.0492934
0.0525043
0.0560569
0.0598863
0.0637198
0.0672596
0.0701288
0.0713295
0.500764
0.495814
0.488844
0.48014
0.47006
0.458963
0.447176
0.43498
0.422607
0.410243
0.398035
0.386096
0.37451
0.363339
0.352626
0.342396
0.332663
0.323431
0.314697
0.306452
0.298682
0.291374
0.284507
0.278063
0.272016
0.26634
0.261007
0.255985
0.25124
0.246742
0.242462
0.238376
0.234466
0.23072
0.227126
0.223676
0.220361
0.217172
0.214097
0.211125
0.208243
0.205438
0.202697
0.20001
0.197366
0.194757
0.192173
0.18961
0.18706
0.184521
0.181989
0.179466
0.176951
0.174448
0.171961
0.169495
0.167054
0.164646
0.162275
0.159946
0.157665
0.155437
0.153264
0.151151
0.1491
0.14711
0.145181
0.14331
0.141494
0.139727
0.138006
0.136327
0.134686
0.13308
0.131509
0.12997
0.128461
0.126982
0.12553
0.124104
0.122702
0.121321
0.119959
0.118613
0.117281
0.115962
0.114655
0.113357
0.11207
0.110792
0.109522
0.108262
0.107014
0.105772
0.104536
0.103305
0.102077
0.100852
0.0996273
0.0984005
0.0971684
0.0959272
0.0946718
0.0933958
0.0920908
0.0907455
0.0893446
0.0878671
0.0862834
0.0845515
0.082611
0.0803751
0.0777183
0.0744576
0.0703125
0.0647982
0.0569751
0.0453013
0.0327325
0.0227019
0.0160524
0.00776823
0.00221503
0.000746157
0.00217931
0.00556327
0.0191401
0.0161104
0.0030219
9.11412e-05
2.59364e-06
5.78155e-08
1.12952e-09
2.82627e-08
6.97677e-08
1.69306e-07
2.82695e-07
3.11359e-07
8.67827e-06
1.27467e-05
0.000109679
0.0463869
0.0493584
0.0522596
0.0557317
0.0593221
0.0630495
0.0666056
0.0695766
0.0709191
0.483088
0.478364
0.471814
0.463709
0.454358
0.444063
0.4331
0.421714
0.410111
0.398464
0.386913
0.37557
0.364523
0.353837
0.343556
0.333714
0.324327
0.315405
0.306949
0.298957
0.29142
0.28433
0.277673
0.271434
0.265595
0.26013
0.255014
0.250211
0.245686
0.241401
0.237325
0.233432
0.229704
0.226131
0.222706
0.219424
0.216278
0.213261
0.210361
0.207566
0.204861
0.20223
0.19966
0.197138
0.194651
0.19219
0.189746
0.18731
0.184876
0.182439
0.179996
0.177546
0.175092
0.172637
0.170187
0.167747
0.165325
0.162928
0.160563
0.158237
0.155956
0.153727
0.151555
0.149445
0.147392
0.145403
0.143484
0.141636
0.139847
0.138111
0.136421
0.134773
0.133163
0.131586
0.130043
0.128531
0.12705
0.125598
0.124175
0.122777
0.121403
0.120049
0.118714
0.117392
0.116082
0.114783
0.113491
0.112206
0.110928
0.109656
0.108391
0.107131
0.105879
0.104633
0.10339
0.102148
0.100905
0.0996612
0.0984131
0.097158
0.0958924
0.0946115
0.0933092
0.0919776
0.0906062
0.0891807
0.0876816
0.0860822
0.084345
0.0824177
0.0802275
0.0776727
0.0746123
0.0708464
0.0660685
0.059727
0.0507476
0.0377247
0.0269895
0.0119037
0.00158008
2.73479e-05
1.99409e-07
2.53198e-06
0.000138189
0.000223119
0.000156507
0.00085808
0.00015163
6.29135e-06
1.65496e-07
3.35122e-09
5.75083e-11
4.86968e-10
1.43545e-09
3.89857e-09
5.65198e-09
5.27986e-09
1.30969e-07
1.5665e-07
0.00313957
0.0466722
0.04935
0.0520738
0.0554398
0.0589557
0.0625827
0.0661124
0.0691216
0.0705401
0.466268
0.461812
0.455681
0.448119
0.439394
0.429768
0.419485
0.408763
0.397794
0.386742
0.375743
0.364907
0.354321
0.344053
0.334151
0.324647
0.315563
0.306911
0.298697
0.290923
0.283585
0.276681
0.270205
0.264148
0.258498
0.253237
0.248339
0.243768
0.239482
0.235435
0.231587
0.227909
0.22438
0.220994
0.217749
0.214646
0.211684
0.208857
0.206156
0.203564
0.201064
0.198638
0.196268
0.193938
0.191638
0.189353
0.187075
0.184792
0.182496
0.180181
0.177842
0.175479
0.173094
0.170692
0.168281
0.165869
0.163464
0.161075
0.158711
0.156381
0.154094
0.151857
0.149677
0.14754
0.145471
0.143479
0.141567
0.139737
0.13798
0.13628
0.134628
0.133016
0.13144
0.129896
0.128384
0.126903
0.125453
0.124034
0.122644
0.12128
0.119941
0.118622
0.11732
0.11603
0.114749
0.113474
0.112203
0.110935
0.10967
0.108407
0.107147
0.105889
0.104633
0.103384
0.102134
0.100881
0.099624
0.0983607
0.0970886
0.0958042
0.094503
0.0931793
0.0918257
0.0904321
0.0889854
0.0874678
0.085855
0.0841141
0.0822004
0.0800532
0.0775912
0.0747055
0.07125
0.0670206
0.061692
0.0546322
0.044618
0.0305525
0.0230881
0.00471564
4.22927e-05
2.8188e-07
1.99034e-09
4.53836e-09
1.05211e-06
2.87893e-06
3.43756e-06
2.27613e-05
5.35104e-06
1.97673e-07
5.20656e-09
1.1097e-10
2.07979e-12
8.77452e-12
3.40883e-11
1.00912e-10
1.03872e-10
7.51647e-11
1.39991e-09
0.000108331
0.0170299
0.0465924
0.0492522
0.0519139
0.0551802
0.0586407
0.0622342
0.0657234
0.0687341
0.070183
0.450567
0.44636
0.440586
0.433464
0.425232
0.416126
0.406367
0.396159
0.385685
0.375103
0.364544
0.354119
0.343914
0.333994
0.324407
0.315187
0.306354
0.297924
0.289903
0.282297
0.275108
0.26834
0.261995
0.256074
0.250576
0.245493
0.240807
0.236482
0.232466
0.228696
0.225115
0.221681
0.218373
0.215187
0.212131
0.209217
0.206454
0.20384
0.201365
0.199011
0.196754
0.194571
0.192439
0.19034
0.188262
0.186191
0.184113
0.182017
0.17989
0.177722
0.175509
0.173249
0.170945
0.168605
0.166237
0.163852
0.161461
0.159076
0.156707
0.154365
0.152061
0.149805
0.147576
0.145406
0.143309
0.141299
0.139387
0.137575
0.135858
0.134204
0.132598
0.13103
0.129493
0.127986
0.126508
0.125061
0.123645
0.122262
0.120911
0.119588
0.118291
0.117016
0.115756
0.114507
0.113262
0.112019
0.110775
0.109528
0.10828
0.107029
0.105776
0.104522
0.103266
0.102016
0.10076
0.0994966
0.0982241
0.09694
0.095641
0.094323
0.0929806
0.0916065
0.0901915
0.0887232
0.0871854
0.0855564
0.0838077
0.0819013
0.0797876
0.0774022
0.0746616
0.0714586
0.0676523
0.0630421
0.0572806
0.0496224
0.0386487
0.0234745
0.0198328
0.00153517
2.73752e-05
3.48829e-07
3.08771e-09
3.68712e-11
7.4593e-09
3.02091e-08
5.33222e-08
3.97381e-07
1.00975e-07
3.94341e-09
1.07509e-10
2.43797e-12
5.13995e-14
1.48696e-13
1.05251e-12
1.22504e-11
5.35509e-10
4.91616e-08
5.69914e-06
0.000707027
0.0237313
0.0464735
0.0491382
0.051777
0.0549734
0.0583694
0.0619164
0.0653892
0.0683904
0.06984
0.436068
0.432066
0.426563
0.419762
0.41188
0.403137
0.393744
0.383897
0.373776
0.363534
0.353305
0.343193
0.333283
0.323637
0.3143
0.305301
0.29666
0.288389
0.280498
0.272991
0.265877
0.259164
0.252865
0.246995
0.241428
0.236314
0.231827
0.227785
0.224111
0.220707
0.217477
0.214356
0.211316
0.208359
0.20551
0.202803
0.200263
0.197898
0.195698
0.19364
0.191693
0.189818
0.187989
0.186183
0.184385
0.182584
0.180763
0.178906
0.176995
0.175016
0.172961
0.170828
0.168623
0.166355
0.164035
0.161679
0.159301
0.156914
0.154531
0.152167
0.149832
0.147515
0.145223
0.142986
0.140823
0.138759
0.13682
0.135023
0.133358
0.131764
0.130221
0.12871
0.127224
0.125761
0.124322
0.122913
0.121538
0.120198
0.118894
0.117623
0.116381
0.115163
0.113961
0.112766
0.111571
0.110371
0.109163
0.107945
0.106718
0.105484
0.104242
0.102995
0.101741
0.100481
0.0992215
0.0979485
0.0966599
0.0953525
0.0940222
0.0926639
0.0912706
0.0898336
0.0883414
0.0867791
0.0851279
0.0833632
0.0814539
0.0793602
0.0770322
0.0744073
0.0714073
0.0679342
0.0638586
0.0589859
0.0529378
0.0448459
0.0331724
0.0175179
0.00530129
0.000358452
4.95879e-06
5.4233e-08
4.70615e-10
3.41887e-12
4.68747e-11
2.55234e-10
5.98112e-10
4.77363e-09
1.23811e-09
5.35927e-11
1.53923e-12
3.62032e-14
3.17516e-18
3.17516e-18
2.26484e-14
9.56619e-12
1.46968e-09
1.36219e-07
1.12113e-05
0.000777959
0.0307726
0.0464382
0.0490671
0.051675
0.0548042
0.0581385
0.0616351
0.0650739
0.0680564
0.0695014
0.42277
0.418918
0.413595
0.40699
0.399311
0.390772
0.381581
0.371937
0.362021
0.35199
0.341976
0.33208
0.32238
0.312932
0.303772
0.294926
0.286405
0.278219
0.270371
0.262867
0.255714
0.248926
0.242296
0.235585
0.229119
0.223129
0.217999
0.214395
0.21135
0.208678
0.206164
0.203676
0.201156
0.198612
0.196107
0.193727
0.191545
0.18959
0.187855
0.186308
0.184892
0.183543
0.182213
0.180877
0.17952
0.178135
0.176704
0.175206
0.173616
0.171913
0.170085
0.168131
0.166061
0.163888
0.161631
0.15931
0.156944
0.15455
0.152146
0.149744
0.147361
0.144949
0.14255
0.14018
0.137866
0.135651
0.133606
0.131794
0.130199
0.128698
0.127249
0.125824
0.124408
0.123001
0.12161
0.120248
0.118922
0.117638
0.116397
0.115197
0.114034
0.112901
0.111785
0.110673
0.109554
0.108419
0.107265
0.10609
0.104897
0.103687
0.102464
0.101228
0.0999798
0.0987198
0.0974588
0.0961754
0.0948668
0.0935292
0.0921577
0.0907459
0.0892854
0.0877657
0.0861734
0.0844921
0.0827014
0.0807766
0.0786876
0.0763976
0.0738615
0.0710239
0.0678168
0.0641545
0.0599199
0.0549183
0.0487281
0.04036
0.0283278
0.0133816
0.00217444
0.000162776
2.30711e-06
2.52596e-08
2.22557e-10
1.65061e-12
2.67622e-13
1.74647e-12
5.02736e-12
4.17059e-11
1.08985e-11
5.22994e-13
1.57266e-14
3.17516e-18
0
0
0
1.07606e-12
4.02476e-09
2.14099e-07
1.15708e-05
0.000486988
0.0432577
0.0466189
0.0490646
0.0516024
0.0546553
0.0579276
0.0613718
0.0647704
0.0677251
0.0691625
0.410638
0.406879
0.401639
0.395102
0.387473
0.378967
0.369805
0.360196
0.350334
0.340381
0.330467
0.320689
0.311115
0.301787
0.292732
0.283961
0.275476
0.267276
0.259355
0.25171
0.244341
0.236853
0.228854
0.220608
0.212068
0.203811
0.196429
0.192725
0.190697
0.189403
0.188268
0.186986
0.1854
0.183514
0.181469
0.179496
0.177808
0.176487
0.175536
0.174902
0.174479
0.174117
0.173711
0.173224
0.172651
0.171996
0.171246
0.170372
0.169331
0.168092
0.166638
0.164972
0.163114
0.161089
0.158929
0.156662
0.154316
0.151916
0.14948
0.147026
0.144539
0.141991
0.139405
0.136785
0.134148
0.131559
0.129193
0.1273
0.125814
0.124474
0.123192
0.121914
0.120612
0.119287
0.117958
0.116654
0.115394
0.114186
0.113035
0.111941
0.1109
0.109904
0.108933
0.107962
0.106971
0.105947
0.104883
0.10378
0.102642
0.101474
0.100282
0.0990679
0.097834
0.0965795
0.0953052
0.0940174
0.0926902
0.0913191
0.0898982
0.0884202
0.0868757
0.0852532
0.0835387
0.0817158
0.079766
0.0776684
0.0753991
0.0729291
0.0702224
0.0672335
0.0639047
0.0601605
0.0558893
0.0508852
0.0446687
0.0361333
0.0240068
0.0104669
0.000872558
3.07266e-05
4.60885e-07
4.92632e-09
4.28976e-11
3.23289e-13
2.70206e-15
9.43976e-15
3.2828e-14
2.78059e-13
7.29938e-14
3.24819e-15
0
0
0
0
0
1.10315e-13
7.07487e-09
5.13039e-07
2.99488e-05
0.00147338
0.0436355
0.0466612
0.0490166
0.0515102
0.0544991
0.0577156
0.0611104
0.0644688
0.0673934
0.0688225
0.399599
0.395861
0.390603
0.384011
0.376304
0.367715
0.358328
0.348546
0.338573
0.328561
0.318635
0.308883
0.299352
0.290068
0.281038
0.272254
0.2637
0.255356
0.247193
0.239186
0.231022
0.221567
0.211011
0.199447
0.186735
0.17507
0.163364
0.159443
0.158895
0.160122
0.161454
0.162267
0.16217
0.161092
0.159109
0.156085
0.154862
0.154387
0.154671
0.155654
0.157134
0.158682
0.160031
0.161109
0.161956
0.162621
0.163115
0.16339
0.163366
0.162975
0.162193
0.161036
0.159544
0.157772
0.155774
0.153601
0.151298
0.148898
0.146427
0.143902
0.141266
0.138519
0.135637
0.132586
0.129334
0.125932
0.122765
0.120717
0.119411
0.118382
0.117418
0.116409
0.115296
0.114077
0.112806
0.111559
0.110371
0.109258
0.108227
0.107285
0.106434
0.105664
0.104946
0.104225
0.103463
0.102632
0.101724
0.100743
0.0996981
0.0986016
0.0974634
0.0962904
0.0950856
0.0938484
0.0925762
0.0912904
0.0899476
0.0885398
0.0870617
0.0855064
0.0838648
0.0821256
0.0802758
0.0783016
0.07619
0.0739289
0.0715066
0.0689059
0.0661011
0.0630547
0.0597141
0.0560055
0.0518133
0.0469084
0.0407367
0.0320721
0.020006
0.00842019
0.000359692
3.12764e-06
2.97111e-08
2.76948e-10
2.32953e-12
1.75968e-14
0
0
0
4.44523e-16
3.17516e-18
0
0
0
0
0
0
1.08554e-10
7.78186e-09
8.26674e-07
9.4979e-05
0.00891895
0.0435646
0.0465653
0.0489006
0.0513748
0.0543156
0.0574859
0.0608378
0.064161
0.0670589
0.0684808
0.389564
0.385745
0.380326
0.373503
0.365519
0.356637
0.347033
0.337038
0.326945
0.316497
0.306273
0.296453
0.286892
0.277577
0.268486
0.259583
0.250821
0.242144
0.233487
0.224777
0.214007
0.20098
0.18552
0.170066
0.153301
0.141829
0.128757
0.126392
0.126657
0.130489
0.134094
0.136777
0.137846
0.136923
0.132533
0.126287
0.123732
0.123585
0.124829
0.127577
0.131721
0.136075
0.139916
0.14314
0.145938
0.148503
0.15091
0.153075
0.154789
0.155872
0.156253
0.155961
0.155083
0.153726
0.151995
0.14998
0.147753
0.145367
0.142857
0.140243
0.137437
0.134424
0.131136
0.127468
0.123263
0.118495
0.113865
0.111865
0.110859
0.110416
0.109987
0.109408
0.10855
0.107401
0.10585
0.104446
0.103302
0.102275
0.101372
0.100612
0.100016
0.0995941
0.0993043
0.0990124
0.0986404
0.0981355
0.0974819
0.0966922
0.0957909
0.0948037
0.0937511
0.0926464
0.0914958
0.0902981
0.0890477
0.0877387
0.0863977
0.0849667
0.0834417
0.0818168
0.0800843
0.0782344
0.0762573
0.0741446
0.0718928
0.0695044
0.0669868
0.0643366
0.0615349
0.0585462
0.0553104
0.0517456
0.0477243
0.042985
0.0368785
0.0280377
0.0160321
0.00702574
0.000221977
2.27435e-06
2.0827e-08
1.75645e-10
1.34923e-12
9.25243e-15
0
0
0
0
0
0
0
0
0
0
0
9.85078e-09
2.11455e-07
2.3938e-05
0.00120259
0.0194775
0.0434306
0.046412
0.0487346
0.0511929
0.0540938
0.0572256
0.0605433
0.0638402
0.0667201
0.0681378
0.380469
0.37646
0.370721
0.363462
0.354961
0.345538
0.335475
0.325098
0.314721
0.304226
0.293913
0.283244
0.273473
0.264037
0.254782
0.245619
0.236452
0.227171
0.217641
0.206343
0.191622
0.172273
0.151406
0.136539
0.12056
0.115665
0.111778
0.0937938
0.0891694
0.119439
0.121496
0.123255
0.123703
0.121773
0.114434
0.104933
0.102165
0.100503
0.100847
0.103091
0.108326
0.114304
0.119393
0.123565
0.127338
0.131177
0.135305
0.139612
0.143595
0.14673
0.148764
0.149702
0.149687
0.148906
0.147538
0.145733
0.143607
0.141242
0.138689
0.135966
0.132976
0.12968
0.12596
0.121618
0.116291
0.10998
0.104073
0.102649
0.101979
0.102375
0.102535
0.102416
0.101761
0.100457
0.0974952
0.095633
0.094333
0.093328
0.0924813
0.0918339
0.0914569
0.0914434
0.0918054
0.0921596
0.0923772
0.0923477
0.0920439
0.0915019
0.0907783
0.0899248
0.0889802
0.0879693
0.0869028
0.0857769
0.0845773
0.083292
0.0819482
0.0805104
0.0789493
0.0772658
0.0754578
0.0735203
0.071448
0.0692378
0.0668941
0.0644355
0.0619014
0.0592999
0.0566131
0.0537988
0.0507693
0.0474258
0.0436287
0.0390818
0.0330224
0.0238958
0.0117149
0.00601193
0.000176118
1.8693e-06
1.71317e-08
1.39781e-10
1.02934e-12
6.64562e-15
0
0
0
0
0
0
0
0
0
0
1.24485e-07
1.93596e-06
4.60886e-05
0.000681234
0.00536801
0.0289464
0.0433668
0.0462563
0.0485363
0.050964
0.0538244
0.0569231
0.0602168
0.0635003
0.0663759
0.0677939
0.372244
0.367926
0.361678
0.353723
0.344393
0.334115
0.323311
0.312363
0.301562
0.290869
0.280379
0.269867
0.259297
0.249096
0.239505
0.22988
0.220024
0.209729
0.198712
0.182102
0.161448
0.135951
0.115464
0.1081
0.102577
0.0332513
0.00207957
0.000745776
0.00236298
0.00542402
0.0779986
0.11285
0.113632
0.110554
0.098659
0.0930915
0.0646031
0.0168584
0.0154196
0.0649555
0.100192
0.104334
0.107459
0.109879
0.112327
0.115451
0.119743
0.125332
0.131412
0.136703
0.140538
0.142822
0.143743
0.143574
0.142575
0.140966
0.138917
0.13655
0.133936
0.131094
0.127953
0.124451
0.120427
0.115576
0.109269
0.102157
0.0977046
0.0877296
0.0808835
0.0962455
0.0966398
0.0968368
0.0962165
0.0938839
0.087815
0.0845943
0.0832973
0.082249
0.0808441
0.0801546
0.0798282
0.080203
0.0817518
0.0831966
0.0843762
0.0850763
0.0852461
0.084999
0.0844675
0.0837541
0.0829286
0.0820351
0.0810929
0.080091
0.0789887
0.0777615
0.0764034
0.0749812
0.0734284
0.0717528
0.0699552
0.0680298
0.0659667
0.0637553
0.0613923
0.0589034
0.0564151
0.0539397
0.0514559
0.0489143
0.0461521
0.0430492
0.0394714
0.0351022
0.0290673
0.019693
0.00759661
0.000429641
7.88553e-06
7.78308e-08
6.77598e-10
5.28084e-12
3.75082e-14
0
0
0
0
0
0
0
0
0
0
0
1.26826e-07
4.29177e-06
0.000125686
0.00141453
0.00942914
0.0405338
0.0434991
0.0461137
0.0483002
0.0506758
0.0534928
0.0565645
0.0598614
0.063136
0.0660153
0.0674455
0.364816
0.360053
0.353062
0.344054
0.333452
0.321882
0.310002
0.298273
0.286922
0.275916
0.265226
0.254721
0.244211
0.233071
0.222107
0.211678
0.200684
0.188658
0.171906
0.146044
0.123705
0.100712
0.0941336
0.0426064
0.00261507
0.000309644
2.50849e-05
7.69121e-06
2.10258e-05
4.98463e-05
0.00093259
0.0625152
0.100248
0.0964046
0.0826845
0.0122823
0.000163473
7.0629e-05
0.000115626
0.00116725
0.0717241
0.0983254
0.099574
0.100023
0.100669
0.102207
0.105492
0.111587
0.119926
0.127366
0.132813
0.136228
0.137903
0.138193
0.137431
0.135901
0.133829
0.131385
0.128677
0.125724
0.122523
0.118994
0.114954
0.109951
0.102941
0.0957961
0.050308
0.000899947
0.000568341
0.00260961
0.0577303
0.0901707
0.0902292
0.0873004
0.080773
0.0412766
0.00188516
0.00463012
0.000380536
8.15727e-05
0.00197248
0.0469131
0.0766924
0.0776986
0.0787527
0.079432
0.0794934
0.0791202
0.0784861
0.0777057
0.0768544
0.0759843
0.0751241
0.0742527
0.0732564
0.0720939
0.07077
0.0693301
0.0678044
0.06617
0.0644247
0.0625534
0.0605315
0.0583208
0.0558732
0.05318
0.050701
0.0483587
0.0461176
0.0439347
0.0414235
0.0384751
0.0350158
0.0307204
0.0245922
0.0152123
0.00460013
0.000140211
1.8507e-06
1.66933e-08
1.28441e-10
8.71249e-13
5.08344e-15
0
0
0
0
0
0
0
0
0
0
0
6.15642e-08
2.35728e-06
0.000131719
0.00113682
0.00826454
0.0406714