/*--------------------------------*- C++ -*----------------------------------*\
| =========                 |                                                 |
| \\      /  F ield         | OpenFOAM: The Open Source CFD Toolbox           |
|  \\    /   O peration     | Version:  2.1.0                                 |
|   \\  /    A nd           | Web:      www.OpenFOAM.org                      |
|    \\/     M anipulation  |                                                 |
\*---------------------------------------------------------------------------*/
FoamFile
{
    version     2.0;
    format      ascii;
    class       surfaceScalarField;
    location    "48180";
    object      phi_o;
}
// * * * * * * * * * * * * * * * * * * * * * * * * * * * * * * * * * * * * * //

dimensions      [1 -2 -2 0 0 0 0];

internalField   nonuniform List<scalar> 
29750
(
18.5931
18.6172
11.2273
7.36588
7.75896
3.4684
5.85925
1.9005
4.69651
1.17112
3.94092
0.788483
3.43909
0.57008
3.09841
0.436628
2.85808
0.34888
2.68133
0.286839
2.54724
0.240279
2.44375
0.203766
2.36356
0.174218
2.30188
0.149754
2.25539
0.129162
2.22162
0.111621
2.19862
0.0965599
2.18481
0.083566
2.17885
0.0723387
2.17957
0.0626527
2.18592
0.0543351
2.19694
0.0472488
2.21176
0.0412792
2.22957
0.0363264
2.24962
0.0322976
2.27125
0.029103
2.29383
0.0266549
2.31684
0.0248668
2.3398
0.0236551
2.36232
0.0229423
2.38405
0.0226586
2.40472
0.0227436
2.42407
0.0231468
2.4419
0.0238253
2.45805
0.024744
2.47236
0.0258693
2.48473
0.0271672
2.49506
0.0285995
2.50332
0.0301221
2.5095
0.0316849
2.51363
0.033233
2.51582
0.0347088
2.51622
0.0360543
2.51504
0.0372133
2.51253
0.038133
2.50901
0.038768
2.5048
0.0390798
2.50027
0.0390392
2.49581
0.0386278
2.49181
0.0378391
2.48864
0.0366795
2.48666
0.0351691
2.48622
0.0333408
2.48758
0.0312388
2.49099
0.028917
2.49662
0.026437
2.50455
0.0238648
2.51483
0.0212693
2.52741
0.0187195
2.54219
0.0162812
2.55902
0.014015
2.57766
0.011974
2.59786
0.0101996
2.61934
0.00872121
2.64178
0.0075543
2.66489
0.00669905
2.68838
0.0061417
2.71198
0.00585619
2.73545
0.00580734
2.75861
0.00595611
2.78131
0.00626109
2.80343
0.00668272
2.8249
0.00718527
2.84567
0.00773737
2.86572
0.00831131
2.88507
0.00888269
2.90373
0.00942866
2.92176
0.0099256
2.93924
0.0103483
2.95628
0.0106691
2.97301
0.0108576
2.98961
0.010882
3.00626
0.0107101
3.0232
0.0103115
3.04068
0.0096579
3.059
0.00872522
3.07845
0.00749278
3.09936
0.00594506
3.12205
0.0040667
3.14688
0.0018423
3.1742
-0.000743283
3.20441
-0.00370789
3.23791
-0.0070745
3.27513
-0.0108703
3.31654
-0.0151331
3.36267
-0.0199094
3.41408
-0.0252568
3.47142
-0.0312486
3.53543
-0.0379685
3.60694
-0.0455207
3.68691
-0.0540253
3.77643
-0.0636223
3.87677
-0.0744726
3.98937
-0.0867576
4.11586
-0.100677
4.25809
-0.116444
4.41814
-0.134275
4.59826
-0.154368
4.80088
-0.176874
5.02847
-0.201849
5.28339
-0.229182
5.56765
-0.258509
5.8825
-0.289101
6.22802
-0.319762
6.60258
-0.348796
7.00251
-0.374149
7.42217
-0.393874
7.85503
-0.407047
8.29589
-0.415022
8.74423
-0.422474
9.20733
-0.437207
9.70152
-0.468264
10.2511
-0.523606
10.8849
-0.60771
11.6294
-0.718333
12.4971
-0.841365
13.4681
-0.944312
14.4689
-0.973867
15.3695
-0.873359
16.0382
-0.641543
16.4569
-0.39175
16.6549
-0.171411
16.6603
0.0208883
16.4841
0.202555
16.1295
0.38105
15.6225
0.533375
15.0351
0.613803
14.3939
0.667564
13.672
0.748365
12.8204
0.878022
11.8061
1.04082
10.636
1.19655
9.3439
1.31865
7.97951
1.39096
6.59147
1.41467
5.21491
1.40324
3.86819
1.3735
2.55521
1.33989
1.26979
1.31254
1.29752
7.34176
11.2755
7.32979
7.378
6.19106
4.60729
5.12987
2.96382
4.31387
2.00184
3.72251
1.42442
3.30563
1.06634
3.01066
0.834143
2.79603
0.674676
2.63477
0.558642
2.51073
0.470016
2.4142
0.399757
2.33909
0.342485
2.28129
0.294823
2.23785
0.254543
2.20656
0.220124
2.18562
0.190493
2.17358
0.164878
2.16916
0.142712
2.17125
0.123567
2.17883
0.107117
2.19097
0.0930987
2.20681
0.0812941
2.22554
0.0715098
2.24643
0.0635651
2.2688
0.057284
2.29204
0.0524915
2.31562
0.0490143
2.33908
0.046684
2.36203
0.0453431
2.38414
0.0448507
2.40512
0.0450845
2.42475
0.0459455
2.44282
0.0473516
2.45917
0.0492333
2.47366
0.0515286
2.48616
0.0541723
2.49659
0.0570889
2.50488
0.0601898
2.51104
0.0633745
2.5151
0.0665319
2.51716
0.0695453
2.51738
0.0722955
2.51596
0.0746684
2.51317
0.0765573
2.50932
0.077868
2.50476
0.0785215
2.49986
0.078458
2.49502
0.0776398
2.49065
0.0760543
2.48713
0.0737147
2.48483
0.070662
2.48411
0.0669626
2.48526
0.0627068
2.48851
0.0580031
2.49404
0.0529766
2.50195
0.0477628
2.51228
0.0425019
2.52497
0.0373345
2.53993
0.0323961
2.55697
0.0278104
2.57588
0.0236855
2.59638
0.0201083
2.61817
0.0171382
2.64093
0.0148057
2.66434
0.0131108
2.68809
0.0120229
2.71193
0.0114884
2.7356
0.0114334
2.75892
0.0117747
2.78173
0.0124264
2.80393
0.013307
2.82545
0.0143435
2.84624
0.0154738
2.8663
0.0166455
2.88561
0.0178119
2.90422
0.0189287
2.92218
0.01995
2.93956
0.0208253
2.95647
0.021499
2.97304
0.021909
2.98943
0.021991
3.00586
0.0216792
3.02254
0.0209111
3.03975
0.0196295
3.05777
0.0177874
3.0769
0.0153443
3.09748
0.0122656
3.11982
0.00852362
3.14429
0.00409133
3.17124
-0.00106067
3.20105
-0.0069651
3.23411
-0.0136657
3.27087
-0.0212183
3.31177
-0.0296943
3.35732
-0.0391885
3.40809
-0.0498123
3.4647
-0.0617079
3.52788
-0.0750444
3.59843
-0.0900257
3.67731
-0.106892
3.76558
-0.125922
3.86449
-0.147437
3.97545
-0.171803
4.10009
-0.199427
4.24026
-0.230744
4.39805
-0.266205
4.57576
-0.306236
4.77591
-0.351187
5.00114
-0.401236
5.25407
-0.456258
5.53705
-0.515634
5.85184
-0.578005
6.19898
-0.641012
6.57723
-0.701121
6.98278
-0.753752
7.409
-0.7941
7.84706
-0.819056
8.28844
-0.830297
8.72949
-0.837353
9.17627
-0.857718
9.64618
-0.911796
10.167
-1.01787
10.7742
-1.18811
11.5063
-1.42307
12.3942
-1.70095
13.4385
-1.95896
14.5694
-2.07298
15.6013
-1.872
16.288
-1.2963
16.6772
-0.750841
16.8472
-0.312842
16.842
0.0535089
16.6626
0.409646
16.2818
0.789874
15.7029
1.1404
15.0888
1.25605
14.4747
1.30985
13.8016
1.44963
12.9832
1.72464
11.9618
2.0904
10.7581
2.42835
9.41621
2.68852
8.00322
2.83176
6.58004
2.86547
5.18518
2.82555
3.83458
2.75143
2.52787
2.67387
1.25477
2.61298
2.58008
3.44426
7.83133
4.55908
6.26334
4.5476
4.61973
4.16789
3.35102
3.73645
2.46222
3.36443
1.85943
3.07343
1.45036
2.85119
1.16537
2.68
0.958682
2.54615
0.802435
2.44047
0.679988
2.35693
0.581203
2.29143
0.499676
2.24101
0.431203
2.20344
0.372929
2.17693
0.322858
2.16001
0.279565
2.15142
0.242011
2.15002
0.209426
2.1548
0.181231
2.16481
0.156976
2.17917
0.136301
2.19703
0.118902
2.2176
0.104508
2.24015
0.092859
2.26401
0.0836977
2.28856
0.0767625
2.31329
0.07179
2.33774
0.068522
2.36154
0.0667158
2.38437
0.0661547
2.40598
0.0666567
2.42615
0.0680741
2.4447
0.0702918
2.46147
0.073217
2.4763
0.0767644
2.48908
0.0808426
2.49969
0.0853419
2.50807
0.0901305
2.5142
0.0950552
2.51812
0.0999452
2.51991
0.104618
2.51975
0.108892
2.51785
0.112589
2.51448
0.115543
2.50997
0.11761
2.5047
0.118666
2.49904
0.118617
2.49344
0.117406
2.48831
0.115011
2.48407
0.111452
2.48113
0.106791
2.47986
0.101132
2.48056
0.0946125
2.48349
0.0874027
2.48883
0.0796952
2.49669
0.0716994
2.50711
0.0636332
2.52003
0.0557143
2.53534
0.0481526
2.55285
0.0411411
2.57231
0.0348483
2.59341
0.0294091
2.61584
0.0249176
2.63923
0.0214204
2.66325
0.0189153
2.68756
0.017353
2.71187
0.0166432
2.73594
0.0166666
2.75957
0.0172877
2.78261
0.0183688
2.80497
0.0197819
2.82658
0.0214165
2.84742
0.0231807
2.86746
0.0249991
2.88673
0.0268069
2.90525
0.0285424
2.92306
0.03014
2.94024
0.0315259
2.95688
0.0326152
2.97312
0.0333134
2.98912
0.0335187
3.00509
0.0331294
3.02126
0.0320491
3.03791
0.0301919
3.05533
0.027482
3.07382
0.0238612
3.09373
0.0192822
3.11539
0.0137052
3.13914
0.00709439
3.16534
-0.000587381
3.19435
-0.00938811
3.22656
-0.0193662
3.26239
-0.0306021
3.30227
-0.0432004
3.34669
-0.0572933
3.39619
-0.0730506
3.45136
-0.0906784
3.5129
-0.110427
3.58157
-0.132598
3.65828
-0.157544
3.74407
-0.185682
3.84012
-0.217495
3.94782
-0.253536
4.06877
-0.294425
4.2048
-0.340841
4.35801
-0.393501
4.53081
-0.453119
4.72586
-0.52033
4.94612
-0.595573
5.19469
-0.678898
5.47468
-0.769671
5.78883
-0.866167
6.13887
-0.965038
6.5246
-1.06077
6.94243
-1.14545
7.38404
-1.20948
7.83582
-1.24447
8.28138
-1.24935
8.70913
-1.23839
9.12219
-1.24385
9.54011
-1.30248
9.99677
-1.44683
10.5393
-1.70214
11.2285
-2.08236
12.1362
-2.57616
13.3245
-3.11015
14.7704
-3.47403
16.1771
-3.22872
16.8335
-1.91242
17.1152
-0.998144
17.2135
-0.380285
17.1981
0.0979115
17.0429
0.595203
16.6323
1.23192
15.8185
1.98653
15.1426
1.96428
14.6145
1.87004
14.0766
2.0194
13.349
2.48429
12.2998
3.17159
11.0183
3.74144
9.55946
4.17832
8.03692
4.38448
6.54012
4.39163
5.11105
4.2833
3.75702
4.13358
2.46697
3.99167
1.22187
3.88567
3.82981
1.87626
5.9558
2.91547
5.22613
3.27888
4.26363
3.2791
3.37434
3.13366
2.66064
2.95536
2.12209
2.78845
1.72237
2.6445
1.42248
2.52375
1.19216
2.4237
1.01063
2.34168
0.86404
2.2754
0.743185
2.22296
0.64183
2.18274
0.555657
2.15336
0.481623
2.13363
0.417534
2.12246
0.361792
2.11883
0.313214
2.12183
0.270915
2.13055
0.234219
2.14414
0.202605
2.16177
0.175649
2.18263
0.15299
2.20595
0.134297
2.23099
0.119248
2.25707
0.107508
2.28359
0.0987306
2.31003
0.0925547
2.33594
0.088622
2.36098
0.086595
2.38487
0.0861739
2.4074
0.0871135
2.42837
0.0892255
2.44763
0.0923716
2.46502
0.0964473
2.48038
0.101358
2.49357
0.106996
2.50448
0.113223
2.51299
0.119864
2.51909
0.126708
2.52279
0.133519
2.52419
0.140042
2.52345
0.146021
2.5208
0.15121
2.51655
0.155379
2.51103
0.158326
2.50465
0.159879
2.49783
0.159907
2.49104
0.158325
2.48475
0.155101
2.47941
0.150261
2.47548
0.143892
2.47334
0.136135
2.47335
0.127184
2.47578
0.117275
2.48083
0.106678
2.48863
0.0956839
2.49919
0.0845958
2.51247
0.0737163
2.52833
0.0633389
2.54656
0.0537345
2.56687
0.0451405
2.58892
0.0377473
2.61234
0.0316881
2.63673
0.0270293
2.66169
0.0237646
2.68685
0.0218185
2.7119
0.0210547
2.73656
0.0212936
2.76065
0.0223339
2.78402
0.0239745
2.8066
0.0260336
2.82835
0.0283599
2.84923
0.030835
2.86927
0.0333667
2.88847
0.0358793
2.90684
0.0383011
2.92444
0.0405515
2.94133
0.0425351
2.95758
0.0441362
2.97333
0.0452241
2.98873
0.0456565
3.00401
0.0452897
3.0194
0.0439861
3.0352
0.0416266
3.0517
0.0381115
3.06925
0.0333628
3.08816
0.027323
3.10878
0.0199472
3.13146
0.0111961
3.15653
0.00102977
3.18437
-0.0106043
3.21532
-0.0237788
3.24979
-0.0385906
3.28818
-0.0551743
3.33094
-0.0736996
3.37856
-0.0943837
3.43161
-0.117494
3.49072
-0.143355
3.55662
-0.172356
3.63014
-0.204964
3.71225
-0.241726
3.80408
-0.283285
3.90693
-0.33038
4.02236
-0.383855
4.15214
-0.444651
4.2984
-0.513796
4.4636
-0.592359
4.65062
-0.681387
4.86279
-0.78177
5.10392
-0.894022
5.37819
-1.01791
5.68996
-1.15186
6.04314
-1.29208
6.43992
-1.43132
6.87841
-1.55756
7.34905
-1.65352
7.83094
-1.69939
8.29233
-1.68329
8.70368
-1.6218
9.06355
-1.57531
9.39576
-1.60569
9.74145
-1.76263
10.1591
-2.08833
10.7347
-2.62383
11.6022
-3.40443
12.9606
-4.41972
15.0157
-5.46136
17.4934
-5.63093
17.7478
-2.12535
17.7331
-0.948721
17.6917
-0.307338
17.6954
0.124949
17.6796
0.644492
17.3869
1.56123
15.7963
3.61696
15.0484
2.75077
14.7639
2.19186
14.5415
2.27873
14.0363
3.02717
12.8696
4.37645
11.4552
5.19352
9.76562
5.90403
8.04407
6.1402
6.43179
6.03605
4.96134
5.78422
3.61511
5.50904
2.36098
5.27421
1.16601
5.10855
5.02379
1.14659
4.81696
1.95297
4.43361
2.3896
3.85495
2.5654
3.25083
2.59511
2.71141
2.55564
2.26356
2.48855
1.90194
2.41419
1.61098
2.34222
1.37495
2.27711
1.181
2.22083
1.01939
2.17405
0.88295
2.13678
0.766412
2.1087
0.665914
2.08928
0.578597
2.07789
0.502335
2.07388
0.435532
2.07653
0.376987
2.08513
0.325787
2.09893
0.281234
2.11718
0.242784
2.13911
0.209992
2.16394
0.182475
2.1909
0.159872
2.21925
0.14181
2.24829
0.12789
2.27742
0.117674
2.30609
0.110693
2.33391
0.106472
2.36056
0.104556
2.38581
0.104552
2.40951
0.106148
2.43152
0.109121
2.45171
0.113328
2.46993
0.118676
2.48602
0.125082
2.4998
0.132436
2.51112
0.140579
2.51984
0.149294
2.5259
0.158307
2.52931
0.167299
2.53017
0.175935
2.52864
0.183873
2.52497
0.190788
2.51949
0.196381
2.51258
0.200382
2.50467
0.202566
2.49625
0.202757
2.48782
0.200837
2.47991
0.19676
2.47304
0.190556
2.46772
0.182338
2.46439
0.172291
2.46344
0.160674
2.46518
0.147798
2.46984
0.13402
2.47754
0.119725
2.48831
0.105312
2.50209
0.0911813
2.51873
0.077719
2.53796
0.0652863
2.55947
0.0542015
2.58286
0.0447228
2.60768
0.037032
2.63346
0.0312182
2.65974
0.0272711
2.68609
0.0250791
2.71213
0.0244429
2.7376
0.0251006
2.76229
0.0267625
2.78608
0.0291462
2.80893
0.0320052
2.83082
0.0351448
2.85177
0.0384248
2.87178
0.0417481
2.89089
0.0450405
2.90909
0.0482311
2.92643
0.0512329
2.94293
0.0539305
2.95867
0.056178
2.97376
0.0578001
2.98837
0.0586052
3.00271
0.0583972
3.01704
0.0569932
3.03168
0.0542335
3.04696
0.0499919
3.06321
0.0441746
3.08078
0.0367189
3.10003
0.0275827
3.12129
0.0167348
3.1449
0.00413883
3.17119
-0.0102552
3.20051
-0.026525
3.23321
-0.0447826
3.26965
-0.0651805
3.31025
-0.0879222
3.35545
-0.113266
3.40575
-0.141532
3.46172
-0.173112
3.52401
-0.208479
3.59338
-0.2482
3.67069
-0.292946
3.75698
-0.343509
3.85346
-0.400815
3.96156
-0.465932
4.083
-0.540083
4.21983
-0.624638
4.37457
-0.721099
4.55023
-0.831049
4.75054
-0.956054
4.98003
-1.09746
5.24424
-1.25601
5.54974
-1.43119
5.9039
-1.61995
6.31368
-1.81463
6.78245
-1.99954
7.30318
-2.14685
7.84704
-2.21481
8.35383
-2.1601
8.75017
-1.98716
9.03318
-1.82679
9.23882
-1.77919
9.41575
-1.90633
9.62356
-2.26092
9.95407
-2.91551
10.5869
-3.99194
11.919
-5.6948
14.8462
-8.30321
20.9989
-11.7104
18.9244
-20.5935
18.3745
-6.70732
18.124
-0.291963
18.215
0.748987
18.5963
3.23084
19.4427
8.06301
14.9301
8.17733
14.4895
3.23372
14.8507
1.86991
15.29
1.87879
15.3856
2.97322
13.6867
6.12042
12.1657
6.75965
10.0018
8.11126
7.93992
8.24183
6.17997
7.83186
4.68615
7.31078
3.38028
6.84547
2.19532
6.48829
1.08125
6.25091
6.13313
0.763238
4.08443
1.37431
3.86482
1.78548
3.50472
2.02598
3.09336
2.14726
2.69161
2.19402
2.32867
2.19759
2.01297
2.17816
1.74273
2.14827
1.5123
2.1155
1.31537
2.08439
1.14613
2.05751
0.99974
2.03629
0.872285
2.02138
0.760684
2.01301
0.662529
2.01109
0.575954
2.01533
0.499515
2.02533
0.432098
2.04058
0.372851
2.06048
0.321117
2.08439
0.276384
2.11159
0.238235
2.14133
0.206305
2.17284
0.180232
2.20533
0.159621
2.23808
0.144016
2.27044
0.132881
2.30187
0.12562
2.33199
0.121605
2.36055
0.120235
2.38741
0.120998
2.41248
0.123506
2.43573
0.127519
2.45705
0.132916
2.47633
0.13965
2.49337
0.147683
2.50795
0.156931
2.51983
0.167226
2.52885
0.178305
2.53489
0.189812
2.53795
0.201335
2.53811
0.212431
2.53555
0.22266
2.53056
0.231609
2.52349
0.238895
2.51477
0.244182
2.50487
0.247178
2.49433
0.247651
2.48374
0.245442
2.47371
0.240484
2.46482
0.232808
2.45767
0.222554
2.45277
0.209964
2.45056
0.195367
2.45141
0.179169
2.45554
0.161828
2.46313
0.143834
2.47418
0.125697
2.48863
0.107928
2.50629
0.0910227
2.52688
0.0754466
2.54999
0.0616151
2.57517
0.0498706
2.60187
0.040459
2.62952
0.0335037
2.65755
0.0289874
2.68545
0.0267501
2.71279
0.0265044
2.73926
0.027873
2.76467
0.0304423
2.78894
0.0338185
2.81207
0.0376737
2.8341
0.0417687
2.85509
0.0459534
2.87507
0.0501439
2.89408
0.0542905
2.9121
0.0583405
2.92912
0.0622124
2.94517
0.0657746
2.96029
0.0688447
2.97456
0.071195
2.98816
0.0725701
3.0013
0.0727074
3.01428
0.071364
3.02744
0.0683333
3.04114
0.0634588
3.05575
0.0566368
3.07165
0.0478085
3.08918
0.0369466
3.1087
0.024038
3.13051
0.00906523
3.15492
-0.00801192
3.18226
-0.0272649
3.21281
-0.0488121
3.24691
-0.0728217
3.28491
-0.099522
3.32719
-0.129204
3.37417
-0.162234
3.42636
-0.199061
3.48429
-0.240228
3.54863
-0.286389
3.62013
-0.338327
3.69968
-0.39697
3.78834
-0.463417
3.88741
-0.538957
3.99844
-0.62509
4.12337
-0.723552
4.26462
-0.836323
4.42523
-0.965627
4.60914
-1.1139
4.82148
-1.28369
5.06906
-1.47742
5.36098
-1.69682
5.70923
-1.94173
6.12876
-2.20732
6.63515
-2.47838
7.23521
-2.71786
7.90175
-2.84912
8.52677
-2.7479
8.91054
-2.33322
9.08078
-1.96027
9.11168
-1.77389
9.06116
-1.81921
8.96897
-2.13061
8.87764
-2.78314
8.88402
-3.95245
9.31055
-6.06798
11.439
-10.3546
12.1158
-13.9712
32.8106
-27.2578
24.7898
-21.3652
19.165
-4.003
20.6968
9.069
23.4285
10.9042
19.557
5.13002
9.98647
1.03647
13.1257
1.60971
14.8596
2.07134
16.3844
4.36407
18.5328
9.52324
14.3259
10.3732
13.5173
7.6156
10.1324
11.5446
7.52996
10.8889
5.65888
9.74224
4.22085
8.78362
3.0231
8.07497
1.95794
7.58326
0.963461
7.27404
7.1248
0.543626
3.60549
1.01421
3.47044
1.37412
3.23546
1.62422
2.947
1.78432
2.64341
1.87833
2.34914
1.92734
2.07673
1.94774
1.83089
1.95133
1.6119
1.94627
1.41791
1.93799
1.2463
1.93005
1.09432
1.92468
0.959459
1.92323
0.83954
1.92644
0.73274
1.93465
0.637569
1.94792
0.552834
1.96608
0.477593
1.98884
0.411117
2.01575
0.352851
2.04624
0.302369
2.07966
0.259331
2.11526
0.223437
2.15223
0.194368
2.18972
0.171736
2.22694
0.155041
2.26317
0.143643
2.29786
0.136781
2.33063
0.133621
2.36132
0.133358
2.38992
0.135316
2.4165
0.139022
2.44112
0.144237
2.46379
0.15091
2.48436
0.159098
2.50262
0.168867
2.51824
0.180197
2.53091
0.192927
2.54036
0.206736
2.54642
0.221166
2.54904
0.235672
2.54833
0.249677
2.5445
0.262621
2.53785
0.273989
2.52878
0.283315
2.51776
0.290182
2.50534
0.294226
2.49212
0.295145
2.47878
0.292721
2.46603
0.286851
2.45457
0.277567
2.44508
0.265039
2.43817
0.249574
2.43437
0.231596
2.43406
0.211619
2.43755
0.190221
2.44499
0.168021
2.45641
0.145651
2.47173
0.12375
2.49072
0.102938
2.51305
0.0838048
2.53825
0.0668857
2.56576
0.0526334
2.59491
0.0413805
2.625
0.0333015
2.65531
0.028378
2.6852
0.0263851
2.71416
0.0269092
2.74183
0.0294047
2.76805
0.0332773
2.7928
0.0379767
2.81616
0.0430692
2.83828
0.0482724
2.85928
0.0534482
2.87922
0.0585601
2.89813
0.063617
2.91597
0.0686138
2.93269
0.0734888
2.94824
0.0781014
2.96264
0.0822244
2.97594
0.0855617
2.9883
0.0877705
2.99996
0.0884998
3.01125
0.087425
3.02257
0.0842814
3.03432
0.0788802
3.04692
0.0711137
3.06078
0.0609408
3.07627
0.0483674
3.09372
0.0334169
3.11343
0.0161066
3.13567
-0.00357697
3.16071
-0.0256954
3.1888
-0.0503633
3.22021
-0.0777568
3.25523
-0.108122
3.29416
-0.141777
3.33735
-0.179123
3.38519
-0.220652
3.43813
-0.266965
3.49669
-0.318786
3.56149
-0.376987
3.63323
-0.442614
3.7128
-0.516914
3.80127
-0.601373
3.89998
-0.697753
4.0106
-0.80814
4.13531
-0.934993
4.27696
-1.08121
4.43935
-1.25019
4.62775
-1.44594
4.84965
-1.67307
5.11607
-1.93681
5.44363
-2.24252
5.8577
-2.59396
6.39567
-2.98746
7.10396
-3.39374
8.00297
-3.70686
8.94144
-3.6286
9.28349
-2.62677
9.26716
-1.90205
9.06635
-1.5343
8.74976
-1.46479
8.31644
-1.65904
7.70833
-2.13536
6.76849
-2.97103
5.02398
-4.28018
7.82232
-6.01646
-1.17081
-9.95119
38.7032
-4.52224
42.152
-7.9625
32.237
1.99193
22.532
8.99831
17.6543
13.186
15.4634
16.7045
10.5597
17.9966
13.5873
20.2101
17.1523
19.9308
21.5436
12.2778
19.3828
8.54557
11.5683
8.13546
17.4463
20.4093
9.47663
19.5602
6.3833
14.027
4.70027
11.465
3.51219
10.007
2.53139
9.08802
1.64873
8.49613
0.814224
8.13746
7.96738
0.408579
3.28937
0.779236
3.19954
1.08566
3.0362
1.32064
2.82425
1.49005
2.58782
1.60592
2.34557
1.6815
2.10977
1.72874
1.88742
1.75735
1.68178
1.77465
1.49376
1.78602
1.32298
1.7952
1.16841
1.80477
1.02876
1.81643
0.902718
1.83127
0.78908
1.84991
0.686778
1.87267
0.594915
1.89961
0.512771
1.93058
0.439788
1.96527
0.375555
2.00321
0.319784
2.04377
0.272265
2.08619
0.232818
2.1296
0.201222
2.17303
0.177145
2.21555
0.160067
2.25631
0.149233
2.2947
0.143659
2.33036
0.142216
2.36327
0.143789
2.39362
0.147464
2.42171
0.152659
2.4478
0.159172
2.47198
0.167101
2.49413
0.176711
2.51395
0.188262
2.53097
0.201858
2.54472
0.217362
2.55479
0.234375
2.56092
0.252286
2.56305
0.270363
2.56128
0.287847
2.55587
0.304032
2.54718
0.318292
2.53565
0.33008
2.52181
0.3389
2.50626
0.344301
2.4897
0.345885
2.47291
0.343354
2.45675
0.336547
2.44204
0.325485
2.42962
0.310378
2.4202
0.291617
2.41439
0.269744
2.41267
0.245411
2.41535
0.219341
2.42262
0.192298
2.43451
0.165062
2.45091
0.138409
2.47158
0.113104
2.49613
0.0898802
2.524
0.0694229
2.55451
0.0523311
2.58683
0.0390654
2.62008
0.0298837
2.65332
0.0247803
2.68573
0.0234476
2.71666
0.0252909
2.7457
0.0295106
2.77275
0.0352397
2.79789
0.0416986
2.82137
0.0483129
2.84346
0.0547654
2.86439
0.0609716
2.88428
0.067001
2.90312
0.0729766
2.92084
0.078985
2.9373
0.0850096
2.95237
0.0909019
2.96598
0.0963791
2.97815
0.101048
2.98902
0.104445
2.99888
0.106092
3.00811
0.105554
3.01717
0.102487
3.02655
0.0966693
3.03675
0.0879995
3.04821
0.076479
3.06132
0.0621725
3.07641
0.0451673
3.09375
0.0255336
3.11355
0.00329938
3.13604
-0.0215689
3.16141
-0.0491772
3.18985
-0.0797086
3.22157
-0.113419
3.25681
-0.150646
3.29582
-0.191815
3.33888
-0.237448
3.38631
-0.288181
3.43849
-0.34479
3.49586
-0.408209
3.55893
-0.479571
3.62834
-0.560238
3.70489
-0.651853
3.78959
-0.756394
3.88375
-0.876242
3.9891
-1.01428
4.10797
-1.17399
4.2436
-1.35969
4.40062
-1.57673
4.58592
-1.832
4.81036
-2.13461
5.09218
-2.49716
5.46421
-2.93767
5.98938
-3.48165
6.79084
-4.15719
8.08123
-4.93827
9.94328
-5.38458
10.0082
-2.63671
9.63491
-1.48614
9.13586
-0.997195
8.55551
-0.848052
7.84012
-0.907647
6.87265
-1.13168
5.45934
-1.52128
3.2877
-2.07235
3.88759
-3.02498
4.25814
-4.61741
35.2629
-2.53798
52.1065
7.1797
39.2433
14.7925
26.7196
21.4906
21.1728
30.0791
16.7555
36.0194
12.7732
38.8807
13.308
39.4894
9.4993
35.7598
17.8114
30.4867
18.9727
29.0581
23.8421
36.4353
16.5972
34.4072
3.94343
17.1013
3.82128
14.1838
3.24231
12.0786
2.59317
10.6896
1.9395
9.77347
1.29006
9.17582
0.644138
8.81245
8.63998
0.318754
3.07679
0.615892
3.01186
0.873704
2.89024
1.08421
2.72612
1.2478
2.53507
1.37012
2.33088
1.45915
2.12412
1.5231
1.92206
1.56933
1.72921
1.60388
1.54804
1.63144
1.37964
1.65554
1.22421
1.67873
1.08148
1.70279
0.950892
1.72897
0.831787
1.75805
0.723507
1.79053
0.625461
1.82663
0.537159
1.86634
0.458239
1.9095
0.38847
1.95569
0.327741
2.00432
0.276029
2.0546
0.233343
2.10552
0.19964
2.15595
0.174715
2.20471
0.158082
2.25074
0.148864
2.29325
0.145772
2.33194
0.147222
2.36695
0.151607
2.39882
0.157636
2.42822
0.164583
2.45572
0.172341
2.48159
0.181301
2.50568
0.192104
2.52755
0.205356
2.54647
0.221379
2.56173
0.240074
2.5727
0.260918
2.579
0.283059
2.58053
0.305478
2.57746
0.327162
2.57013
0.347222
2.55896
0.364933
2.54447
0.379686
2.52721
0.390919
2.50784
0.398078
2.48717
0.400636
2.46611
0.398161
2.44568
0.390401
2.42694
0.377353
2.41086
0.359278
2.39832
0.336682
2.39006
0.310263
2.3866
0.280848
2.38831
0.249343
2.39538
0.21668
2.40786
0.183801
2.42561
0.151636
2.44836
0.121104
2.47567
0.0931072
2.50691
0.0685161
2.54124
0.0481267
2.57765
0.0325917
2.61497
0.0223161
2.65199
0.0173433
2.68757
0.0172684
2.72088
0.0212333
2.75143
0.0280467
2.77921
0.0364154
2.8045
0.0452104
2.82782
0.0536673
2.84967
0.0614576
2.87042
0.0686283
2.89025
0.0754558
2.90913
0.0822707
2.92687
0.0893115
2.94319
0.0966391
2.95784
0.104098
2.97065
0.111326
2.98154
0.117792
2.99067
0.122859
2.99835
0.125862
3.00504
0.126206
3.01135
0.123441
3.01788
0.117309
3.02523
0.107739
3.0339
0.0948101
3.04432
0.0786862
3.05678
0.0595559
3.07151
0.0375739
3.08868
0.0128281
3.10843
-0.0146827
3.13087
-0.0450532
3.15614
-0.0784649
3.18434
-0.115184
3.21564
-0.155559
3.25018
-0.200028
3.28814
-0.249125
3.3297
-0.303505
3.37507
-0.363965
3.4245
-0.431472
3.47826
-0.507205
3.53673
-0.592596
3.60035
-0.689388
3.66974
-0.799704
3.74572
-0.926133
3.82938
-1.07185
3.92227
-1.24076
4.02656
-1.43778
4.14535
-1.6692
4.2833
-1.94342
4.44782
-2.27218
4.65168
-2.67326
4.92022
-3.1767
5.31384
-3.84158
6.00976
-4.80816
7.63492
-6.48305
12.6911
-10.2798
11.1588
-11.4466
10.1239
-5.71247
9.28501
-2.18217
8.49591
-0.344944
7.61609
0.0550001
6.48306
0.41252
4.90827
0.978474
2.33507
0.532641
2.29516
-0.826048
6.33758
-1.6286
44.9806
17.7244
59.7192
31.4689
45.9415
28.5393
35.3081
32.1233
27.1131
38.2358
19.6169
43.4437
13.3819
44.993
9.57844
43.0896
4.2262
40.8792
16.3827
44.662
26.3499
45.6644
21.814
40.7356
-0.708696
21.3781
1.02588
16.0573
1.71611
13.5254
1.85336
11.9735
1.677
10.8979
1.34186
10.1397
0.926679
9.62108
0.471676
9.29656
9.14023
0.25382
2.93196
0.494268
2.88131
0.709583
2.78469
0.893169
2.65086
1.04361
2.49027
1.16336
2.31314
1.25709
2.12823
1.33025
1.9423
1.38816
1.76025
1.43547
1.58534
1.47602
1.41956
1.51281
1.26401
1.54814
1.11913
1.58369
0.984979
1.62069
0.861346
1.66001
0.747926
1.70223
0.644393
1.74771
0.550475
1.79658
0.466005
1.84877
0.390947
1.90397
0.325404
1.96164
0.269597
2.02089
0.223811
2.08059
0.188291
2.13932
0.163088
2.19549
0.147852
2.24765
0.141614
2.2947
0.142662
2.33632
0.148679
2.37298
0.157237
2.40577
0.166418
2.43598
0.175278
2.46468
0.183935
2.49239
0.19332
2.51894
0.204743
2.54357
0.2194
2.56517
0.23797
2.58258
0.260401
2.59484
0.285945
2.60142
0.31335
2.60222
0.341141
2.59752
0.367924
2.58784
0.392598
2.57372
0.41438
2.5557
0.43267
2.53437
0.44688
2.5104
0.456333
2.48469
0.460303
2.45835
0.458139
2.43263
0.449435
2.40886
0.434143
2.38826
0.412596
2.3719
0.385468
2.36064
0.353674
2.35509
0.318277
2.35565
0.280402
2.3625
0.241182
2.37569
0.201729
2.39508
0.163133
2.42036
0.126473
2.45108
0.0928362
2.48652
0.0633161
2.52571
0.0389795
2.56738
0.0207727
2.61
0.00936176
2.65191
0.00492773
2.69154
0.00697157
2.72769
0.0142533
2.7598
0.024957
2.788
0.0370986
2.81296
0.0489981
2.83561
0.0596295
2.85684
0.0687145
2.87725
0.0765802
2.89707
0.0838804
2.91617
0.091299
2.93419
0.0993189
2.95065
0.108109
2.96507
0.117499
2.97711
0.127013
2.98661
0.135919
2.99367
0.143322
2.99869
0.148281
3.00228
0.14996
3.00522
0.14776
3.00831
0.141388
3.0123
0.130843
3.01778
0.116342
3.02519
0.0982163
3.0348
0.0768076
3.04677
0.052393
3.06117
0.0251366
3.07806
-0.00492175
3.09746
-0.0378698
3.11942
-0.0738947
3.14397
-0.113271
3.17117
-0.156356
3.20109
-0.203586
3.23376
-0.255493
3.26924
-0.312723
3.30757
-0.376064
3.34877
-0.446479
3.39287
-0.525148
3.43994
-0.613517
3.49004
-0.71336
3.54331
-0.82686
3.6
-0.956694
3.66047
-1.10616
3.72526
-1.27934
3.79513
-1.48135
3.87113
-1.71872
3.95454
-2.00004
4.04674
-2.33699
4.14824
-2.74624
4.25534
-3.25286
4.34726
-3.89691
4.33487
-4.74502
3.83814
-5.89806
11.5244
-7.3825
16.8929
-14.3203
13.6542
-14.4159
11.1222
-8.27236
8.89585
-1.78952
7.97361
2.92779
7.04901
3.60094
4.46244
1.30145
0.976377
0.0772598
1.49261
0.679405
25.6906
1.16546
58.7252
24.1332
56.7895
33.3315
49.5255
35.8012
41.4206
40.2279
32.3211
47.3345
21.1662
54.5966
11.4785
54.6771
7.36805
47.1937
8.00901
40.2316
17.3852
35.1114
21.4211
27.4765
2.45651
12.6516
-6.02957
7.58439
-1.50596
11.5658
0.16419
11.8865
0.777762
11.3909
0.918833
10.7878
0.823209
10.2659
0.602164
9.87201
0.315349
9.6125
9.48425
0.203164
2.83492
0.397654
2.79273
0.575745
2.71137
0.732581
2.59669
0.866486
2.45611
0.978441
2.29743
1.07116
2.12791
1.1482
1.95368
1.21324
1.77965
1.26969
1.60945
1.32047
1.44565
1.36794
1.28991
1.41398
1.14319
1.46005
1.00596
1.50727
0.878373
1.55647
0.760362
1.60831
0.651807
1.66324
0.552612
1.72152
0.462776
1.78322
0.382455
1.84817
0.311991
1.91585
0.251908
1.98537
0.202872
2.05539
0.165574
2.12408
0.140527
2.18926
0.127742
2.24869
0.126275
2.30072
0.133861
2.34488
0.146958
2.38216
0.161688
2.41463
0.175025
2.44464
0.185734
2.47407
0.194402
2.50381
0.202939
2.53359
0.213814
2.56214
0.229226
2.5876
0.250416
2.60812
0.277353
2.62225
0.308868
2.62921
0.343029
2.629
0.377605
2.6222
0.410605
2.60962
0.440689
2.59201
0.467154
2.56991
0.489582
2.54382
0.507452
2.51437
0.519938
2.48253
0.525976
2.44964
0.524535
2.41734
0.51494
2.38731
0.497071
2.36113
0.471383
2.34011
0.438808
2.32524
0.400578
2.31722
0.358072
2.31643
0.312696
2.32305
0.265807
2.3371
0.218693
2.35842
0.172588
2.38673
0.128715
2.42156
0.0883438
2.46218
0.05283
2.5075
0.0236015
2.55596
0.00206311
2.60557
-0.0106458
2.65395
-0.0140318
2.69882
-0.00862706
2.73839
0.00377487
2.77194
0.0203432
2.7999
0.0379305
2.82359
0.0539597
2.84469
0.0670502
2.8647
0.0771104
2.88455
0.0850223
2.90449
0.0921205
2.92419
0.0996677
2.94298
0.108505
2.96004
0.118933
2.97459
0.130742
2.98602
0.143277
2.99401
0.155527
2.99863
0.166213
3.00037
0.17397
3.00008
0.177588
2.99884
0.176253
2.99776
0.169646
2.9978
0.157913
2.99965
0.141513
3.00378
0.121047
3.01038
0.0970874
3.01951
0.0700788
3.03111
0.0402772
3.04511
0.00775132
3.06144
-0.0275852
3.08004
-0.0659435
3.10088
-0.107618
3.12394
-0.152971
3.14918
-0.202427
3.17653
-0.256494
3.2059
-0.315783
3.23715
-0.381041
3.2701
-0.453182
3.3045
-0.533337
3.34009
-0.622903
3.37654
-0.723612
3.41348
-0.837607
3.45054
-0.967534
3.48729
-1.11665
3.52325
-1.28895
3.55776
-1.48937
3.58981
-1.72403
3.61759
-2.00063
3.63749
-2.32892
3.64162
-2.7209
3.61129
-3.18997
3.49915
-3.74528
3.18183
-4.37186
2.3537
-4.97659
4.58664
-5.31709
16.7972
-8.13009
19.7977
-5.89842
17.6051
-0.172302
13.6132
0.46016
8.64676
3.29002
4.74952
6.78449
3.23824
11.8986
1.57852
18.0098
1.97867
27.6892
48.6583
45.942
67.9235
51.5326
59.2593
41.9895
53.9522
41.1077
48.5271
45.6529
39.5832
56.2782
21.2467
72.9328
3.99507
71.9286
0.405944
50.7824
2.8888
37.7483
9.75025
28.2464
6.59624
19.1368
-2.61072
10.6948
-2.04818
9.6416
-1.18519
10.7348
-0.331425
11.0643
0.174655
10.9159
0.396952
10.5962
0.429276
10.2639
0.34265
9.9884
0.187103
9.79717
9.70009
0.160972
2.77494
0.316299
2.73774
0.461062
2.6655
0.592003
2.56245
0.707812
2.43422
0.808912
2.28706
0.896938
2.12716
0.974167
1.96019
1.04305
1.79096
1.10589
1.62335
1.16472
1.46024
1.22122
1.30368
1.27676
1.15495
1.33246
1.01478
1.38925
0.883518
1.44792
0.761241
1.50912
0.647943
1.5734
0.543624
1.6412
0.448404
1.71276
0.362603
1.78809
0.286802
1.86681
0.22188
1.94808
0.168995
2.03034
0.129494
2.1113
0.104686
2.18779
0.0953823
2.25628
0.101048
2.31382
0.118807
2.35961
0.142952
2.39549
0.166952
2.42533
0.185742
2.45331
0.197763
2.48261
0.204574
2.51469
0.209828
2.54901
0.217986
2.58333
0.232938
2.61454
0.256806
2.63964
0.289438
2.65641
0.328882
2.66379
0.372049
2.662
0.415421
2.65228
0.455995
2.63609
0.492209
2.61443
0.523787
2.58778
0.550888
2.55631
0.573256
2.52041
0.589846
2.48109
0.598989
2.44005
0.598953
2.39947
0.588593
2.36163
0.567691
2.32856
0.536937
2.30188
0.497681
2.28274
0.451635
2.27184
0.400617
2.26954
0.346383
2.27594
0.290538
2.29099
0.23453
2.31454
0.179692