/*--------------------------------*- C++ -*----------------------------------*\
| =========                 |                                                 |
| \\      /  F ield         | OpenFOAM: The Open Source CFD Toolbox           |
|  \\    /   O peration     | Version:  2.1.0                                 |
|   \\  /    A nd           | Web:      www.OpenFOAM.org                      |
|    \\/     M anipulation  |                                                 |
\*---------------------------------------------------------------------------*/
FoamFile
{
    version     2.0;
    format      ascii;
    class       volScalarField;
    location    "48180";
    object      pw;
}
// * * * * * * * * * * * * * * * * * * * * * * * * * * * * * * * * * * * * * //

dimensions      [1 -1 -2 0 0 0 0];

internalField   nonuniform List<scalar> 
15000
(
6107.94
6089.35
6078.12
6070.36
6064.5
6059.81
6055.87
6052.43
6049.33
6046.47
6043.79
6041.24
6038.8
6036.43
6034.13
6031.88
6029.66
6027.46
6025.27
6023.09
6020.91
6018.73
6016.53
6014.32
6012.09
6009.84
6007.57
6005.27
6002.96
6000.62
5998.26
5995.87
5993.47
5991.04
5988.6
5986.14
5983.67
5981.19
5978.69
5976.19
5973.68
5971.16
5968.65
5966.13
5963.62
5961.1
5958.6
5956.09
5953.59
5951.09
5948.6
5946.11
5943.63
5941.14
5938.65
5936.16
5933.67
5931.16
5928.65
5926.12
5923.58
5921.02
5918.44
5915.84
5913.22
5910.58
5907.92
5905.23
5902.52
5899.78
5897.02
5894.24
5891.44
5888.61
5885.77
5882.9
5880.02
5877.11
5874.19
5871.25
5868.29
5865.32
5862.33
5859.33
5856.3
5853.26
5850.2
5847.12
5844.03
5840.9
5837.76
5834.58
5831.38
5828.14
5824.86
5821.55
5818.19
5814.77
5811.3
5807.76
5804.16
5800.47
5796.69
5792.82
5788.83
5784.71
5780.45
5776.04
5771.44
5766.64
5761.61
5756.33
5750.76
5744.87
5738.65
5732.04
5725.04
5717.62
5709.76
5701.47
5692.72
5683.52
5673.82
5663.56
5652.68
5641.05
5628.55
5615.09
5600.62
5585.25
5569.21
5552.75
5536.1
5519.44
5502.95
5486.82
5471.2
5456.17
5441.77
5428.1
5415.28
5403.47
5392.84
5383.49
5375.51
5368.92
5363.71
5359.84
5357.28
5356.01
6089.32
6081.98
6074.65
6068.46
6063.33
6059.02
6055.3
6051.99
6048.98
6046.18
6043.55
6041.04
6038.62
6036.28
6034
6031.77
6029.56
6027.37
6025.2
6023.03
6020.86
6018.68
6016.49
6014.28
6012.06
6009.81
6007.54
6005.25
6002.93
6000.59
5998.23
5995.85
5993.44
5991.02
5988.58
5986.12
5983.64
5981.16
5978.66
5976.16
5973.64
5971.13
5968.61
5966.09
5963.58
5961.07
5958.56
5956.05
5953.55
5951.06
5948.57
5946.08
5943.59
5941.11
5938.62
5936.14
5933.64
5931.14
5928.63
5926.1
5923.56
5921.01
5918.43
5915.83
5913.22
5910.57
5907.91
5905.22
5902.51
5899.77
5897.02
5894.23
5891.43
5888.6
5885.76
5882.89
5880.01
5877.1
5874.18
5871.24
5868.28
5865.31
5862.32
5859.32
5856.29
5853.25
5850.2
5847.12
5844.02
5840.9
5837.76
5834.59
5831.38
5828.15
5824.88
5821.57
5818.21
5814.8
5811.34
5807.81
5804.21
5800.53
5796.77
5792.9
5788.93
5784.83
5780.59
5776.19
5771.61
5766.84
5761.84
5756.58
5751.05
5745.19
5739
5732.42
5725.44
5718.03
5710.18
5701.89
5693.16
5683.99
5674.34
5664.17
5653.4
5641.89
5629.5
5616.06
5601.49
5585.89
5569.6
5552.92
5536.08
5519.23
5502.57
5486.29
5470.59
5455.5
5441.02
5427.22
5414.24
5402.28
5391.52
5382.1
5374.1
5367.52
5362.33
5358.5
5355.97
5354.72
6078.05
6074.6
6070.05
6065.5
6061.33
6057.59
6054.23
6051.16
6048.3
6045.62
6043.08
6040.64
6038.28
6035.99
6033.75
6031.54
6029.37
6027.21
6025.06
6022.91
6020.75
6018.59
6016.41
6014.21
6011.99
6009.75
6007.49
6005.2
6002.89
6000.55
5998.19
5995.8
5993.4
5990.97
5988.53
5986.07
5983.59
5981.1
5978.6
5976.09
5973.58
5971.06
5968.54
5966.02
5963.5
5960.99
5958.48
5955.97
5953.47
5950.98
5948.49
5946.01
5943.53
5941.05
5938.57
5936.08
5933.59
5931.1
5928.59
5926.07
5923.54
5920.98
5918.41
5915.82
5913.2
5910.56
5907.9
5905.21
5902.5
5899.76
5897
5894.22
5891.42
5888.59
5885.74
5882.87
5879.99
5877.08
5874.16
5871.22
5868.26
5865.29
5862.3
5859.29
5856.27
5853.24
5850.18
5847.11
5844.01
5840.9
5837.76
5834.59
5831.4
5828.17
5824.91
5821.61
5818.26
5814.86
5811.41
5807.9
5804.32
5800.66
5796.92
5793.08
5789.13
5785.06
5780.85
5776.5
5771.97
5767.24
5762.29
5757.1
5751.62
5745.84
5739.7
5733.17
5726.23
5718.85
5711.01
5702.73
5694.02
5684.9
5675.36
5665.36
5654.82
5643.59
5631.46
5618.13
5603.36
5587.18
5570.35
5553.24
5536.02
5518.82
5501.78
5485.15
5469.33
5454.19
5439.57
5425.5
5412.15
5399.85
5388.83
5379.27
5371.23
5364.69
5359.58
5355.83
5353.36
5352.14
6070.22
6068.34
6065.43
6062.15
6058.87
6055.73
6052.78
6049.99
6047.35
6044.82
6042.4
6040.06
6037.78
6035.56
6033.38
6031.22
6029.09
6026.97
6024.85
6022.73
6020.59
6018.45
6016.29
6014.11
6011.9
6009.67
6007.41
6005.13
6002.82
6000.48
5998.12
5995.74
5993.33
5990.9
5988.45
5985.99
5983.51
5981.01
5978.51
5976
5973.48
5970.96
5968.43
5965.91
5963.39
5960.87
5958.36
5955.85
5953.36
5950.87
5948.38
5945.9
5943.43
5940.95
5938.48
5936
5933.52
5931.03
5928.53
5926.02
5923.49
5920.95
5918.38
5915.79
5913.18
5910.54
5907.88
5905.19
5902.48
5899.75
5896.98
5894.2
5891.39
5888.57
5885.72
5882.85
5879.96
5877.05
5874.13
5871.19
5868.23
5865.26
5862.27
5859.26
5856.24
5853.21
5850.16
5847.09
5844
5840.89
5837.76
5834.6
5831.42
5828.2
5824.95
5821.66
5818.33
5814.96
5811.52
5808.03
5804.48
5800.85
5797.13
5793.33
5789.42
5785.4
5781.25
5776.95
5772.49
5767.84
5762.97
5757.87
5752.49
5746.8
5740.76
5734.32
5727.44
5720.09
5712.26
5703.97
5695.26
5686.2
5676.8
5667.06
5656.9
5646.17
5634.57
5621.61
5606.59
5589.1
5571.35
5553.62
5535.92
5518.23
5500.55
5483.16
5467.37
5452.32
5437.55
5423.01
5408.98
5396.11
5384.65
5374.89
5366.84
5360.41
5355.45
5351.83
5349.47
5348.31
6064.26
6063.11
6061.16
6058.77
6056.21
6053.61
6051.06
6048.57
6046.15
6043.81
6041.53
6039.31
6037.14
6035
6032.89
6030.8
6028.73
6026.65
6024.58
6022.49
6020.39
6018.28
6016.14
6013.97
6011.78
6009.56
6007.31
6005.04
6002.73
6000.4
5998.04
5995.65
5993.24
5990.81
5988.36
5985.89
5983.4
5980.9
5978.39
5975.87
5973.34
5970.82
5968.28
5965.76
5963.23
5960.71
5958.2
5955.69
5953.2
5950.71
5948.23
5945.76
5943.29
5940.83
5938.36
5935.9
5933.43
5930.95
5928.46
5925.96
5923.44
5920.9
5918.34
5915.76
5913.15
5910.52
5907.86
5905.17
5902.46
5899.72
5896.96
5894.17
5891.37
5888.54
5885.68
5882.81
5879.92
5877.01
5874.09
5871.14
5868.18
5865.21
5862.22
5859.22
5856.2
5853.17
5850.12
5847.06
5843.98
5840.88
5837.76
5834.61
5831.44
5828.24
5825.01
5821.74
5818.43
5815.07
5811.67
5808.21
5804.68
5801.09
5797.42
5793.66
5789.81
5785.85
5781.76
5777.54
5773.17
5768.62
5763.87
5758.89
5753.64
5748.09
5742.19
5735.88
5729.09
5721.79
5713.94
5705.59
5696.84
5687.81
5678.57
5669.15
5659.53
5649.57
5638.99
5627.07
5612.22
5591.22
5572.3
5553.92
5535.8
5517.58
5498.99
5479.55
5464.62
5450.13
5435.28
5419.99
5404.6
5390.91
5378.75
5368.75
5360.81
5354.63
5349.94
5346.56
5344.36
5343.28
6059.44
6058.68
6057.31
6055.52
6053.5
6051.35
6049.15
6046.96
6044.78
6042.63
6040.51
6038.43
6036.37
6034.34
6032.32
6030.3
6028.29
6026.28
6024.25
6022.21
6020.15
6018.07
6015.95
6013.81
6011.64
6009.43
6007.2
6004.93
6002.62
6000.29
5997.93
5995.54
5993.13
5990.7
5988.24
5985.76
5983.27
5980.76
5978.24
5975.71
5973.18
5970.64
5968.1
5965.57
5963.03
5960.51
5958
5955.49
5953
5950.51
5948.04
5945.58
5943.12
5940.66
5938.21
5935.76
5933.31
5930.84
5928.37
5925.88
5923.38
5920.85
5918.3
5915.72
5913.12
5910.49
5907.83
5905.15
5902.44
5899.7
5896.93
5894.14
5891.33
5888.5
5885.64
5882.77
5879.87
5876.96
5874.03
5871.09
5868.13
5865.15
5862.16
5859.16
5856.15
5853.12
5850.08
5847.02
5843.95
5840.86
5837.75
5834.62
5831.47
5828.29
5825.07
5821.83
5818.54
5815.21
5811.84
5808.41
5804.93
5801.38
5797.76
5794.06
5790.27
5786.39
5782.39
5778.26
5774
5769.57
5764.96
5760.14
5755.07
5749.71
5744
5737.87
5731.24
5724
5716.1
5707.58
5698.67
5689.58
5680.47
5671.41
5662.44
5653.57
5644.68
5635.37
5623.93
5611.82
5579.01
5554.22
5535.05
5514.35
5490.93
5471.37
5461.38
5448.26
5433.4
5417.01
5398.48
5384.15
5370.64
5360.5
5352.97
5347.31
5343.09
5340.07
5338.11
5337.15
6055.36
6054.82
6053.8
6052.43
6050.8
6049.02
6047.14
6045.21
6043.27
6041.31
6039.37
6037.43
6035.5
6033.58
6031.65
6029.73
6027.79
6025.84
6023.88
6021.89
6019.87
6017.83
6015.75
6013.63
6011.48
6009.29
6007.06
6004.8
6002.5
6000.17
5997.81
5995.42
5993
5990.56
5988.1
5985.61
5983.11
5980.59
5978.06
5975.52
5972.98
5970.43
5967.88
5965.33
5962.8
5960.27
5957.75
5955.24
5952.75
5950.27
5947.81
5945.35
5942.91
5940.47
5938.04
5935.6
5933.16
5930.72
5928.26
5925.79
5923.3
5920.79
5918.25
5915.68
5913.09
5910.46
5907.81
5905.12
5902.41
5899.67
5896.9
5894.11
5891.29
5888.45
5885.59
5882.71
5879.81
5876.9
5873.97
5871.02
5868.05
5865.08
5862.09
5859.09
5856.08
5853.06
5850.02
5846.98
5843.91
5840.84
5837.74
5834.63
5831.5
5828.33
5825.15
5821.93
5818.67
5815.38
5812.04
5808.65
5805.22
5801.72
5798.16
5794.52
5790.81
5787.01
5783.11
5779.1
5774.96
5770.69
5766.25
5761.62
5756.77
5751.65
5746.21
5740.35
5733.96
5726.85
5718.85
5709.91
5700.63
5691.36
5682.29
5673.54
5665.23
5657.52
5650.75
5645.73
5637.9
5639.07
5600.37
5558.22
5525.98
5503.45
5485.8
5470.33
5459.77
5446.18
5429.03
5407.49
5388.11
5376.54
5359.09
5349.61
5343.23
5338.53
5335.02
5332.49
5330.84
5330.02
6051.75
6051.35
6050.57
6049.48
6048.16
6046.67
6045.06
6043.38
6041.65
6039.9
6038.12
6036.34
6034.54
6032.74
6030.92
6029.09
6027.24
6025.37
6023.47
6021.54
6019.57
6017.57
6015.52
6013.44
6011.31
6009.13
6006.92
6004.66
6002.37
6000.04
5997.67
5995.28
5992.86
5990.41
5987.94
5985.45
5982.93
5980.4
5977.86
5975.3
5972.74
5970.18
5967.62
5965.06
5962.51
5959.98
5957.46
5954.95
5952.46
5949.99
5947.53
5945.09
5942.66
5940.24
5937.82
5935.41
5933
5930.57
5928.14
5925.69
5923.22
5920.72
5918.2
5915.64
5913.05
5910.43
5907.78
5905.1
5902.38
5899.63
5896.86
5894.06
5891.24
5888.4
5885.53
5882.65
5879.75
5876.82
5873.89
5870.94
5867.97
5864.99
5862
5859
5855.99
5852.98
5849.95
5846.91
5843.87
5840.8
5837.73
5834.63
5831.52
5828.39
5825.22
5822.03
5818.81
5815.56
5812.26
5808.92
5805.53
5802.1
5798.6
5795.04
5791.41
5787.71
5783.92
5780.03
5776.05
5771.94
5767.69
5763.29
5758.71
5753.9
5748.8
5743.34
5737.35
5730.56
5722.48
5712.54
5702.53
5692.89
5683.76
5675.2
5667.36
5660.49
5655.03
5651.74
5647.85
5643.6
5608.33
5556.23
5516.98
5490.26
5469.09
5452.34
5439.56
5426.25
5416.75
5398.94
5379.97
5356.13
5339.53
5335.59
5331.77
5328.52
5325.93
5323.99
5322.7
5322.06
6048.47
6048.15
6047.53
6046.66
6045.57
6044.32
6042.95
6041.5
6039.97
6038.4
6036.8
6035.17
6033.51
6031.83
6030.13
6028.4
6026.64
6024.85
6023.03
6021.16
6019.25
6017.3
6015.29
6013.24
6011.13
6008.97
6006.77
6004.52
6002.23
5999.89
5997.53
5995.13
5992.7
5990.24
5987.76
5985.26
5982.73
5980.18
5977.62
5975.05
5972.47
5969.89
5967.31
5964.74
5962.18
5959.64
5957.11
5954.6
5952.12
5949.65
5947.2
5944.78
5942.37
5939.97
5937.58
5935.19
5932.8
5930.41
5928
5925.57
5923.13
5920.65
5918.14
5915.6
5913.02
5910.41
5907.76
5905.07
5902.35
5899.6
5896.82
5894.01
5891.19
5888.34
5885.47
5882.58
5879.67
5876.74
5873.8
5870.84
5867.87
5864.89
5861.9
5858.9
5855.89
5852.88
5849.86
5846.84
5843.8
5840.76
5837.7
5834.63
5831.54
5828.43
5825.3
5822.15
5818.96
5815.75
5812.5
5809.21
5805.88
5802.5
5799.08
5795.6
5792.06
5788.46
5784.79
5781.05
5777.22
5773.3
5769.27
5765.13
5760.84
5756.39
5751.74
5746.82
5741.51
5735.5
5727.86
5715.17
5704.01
5693.89
5684.61
5676.11
5668.49
5662.01
5657.1
5654.77
5652.47
5646.13
5601.15
5541.43
5495.49
5460.18
5433.07
5413.45
5400.07
5390.49
5386.27
5369.89
5343.54
5321.72
5322.43
5321.4
5319.69
5317.83
5316.16
5314.82
5313.89
5313.42
6045.39
6045.13
6044.64
6043.93
6043.04
6041.99
6040.83
6039.57
6038.24
6036.86
6035.42
6033.94
6032.43
6030.88
6029.3
6027.68
6026.02
6024.32
6022.57
6020.77
6018.92
6017.02
6015.06
6013.04
6010.96
6008.82
6006.62
6004.37
6002.08
5999.74
5997.37
5994.96
5992.53
5990.06
5987.57
5985.05
5982.51
5979.94
5977.36
5974.77
5972.16
5969.56
5966.96
5964.38
5961.8
5959.25
5956.71
5954.2
5951.72
5949.26
5946.83
5944.42
5942.03
5939.66
5937.3
5934.94
5932.59
5930.22
5927.85
5925.45
5923.03
5920.58
5918.1
5915.57
5913
5910.39
5907.74
5905.05
5902.32
5899.56
5896.77
5893.96
5891.12
5888.27
5885.39
5882.49
5879.58
5876.64
5873.69
5870.73
5867.75
5864.76
5861.77
5858.77
5855.77
5852.76
5849.76
5846.74
5843.73
5840.7
5837.67
5834.62
5831.56
5828.48
5825.38
5822.26
5819.12
5815.95
5812.75
5809.51
5806.24
5802.94
5799.59
5796.19
5792.75
5789.26
5785.72
5782.12
5778.46
5774.74
5770.94
5767.07
5763.11
5759.07
5754.92
5750.66
5746.32
5741.98
5738.14
5726.62
5709.73
5696.07
5684.95
5676.05
5668.08
5661.03
5656.57
5655.59
5654.1
5628.41
5569.68
5512.89
5463.37
5421.95
5389.63
5368.46
5356.98
5349.61
5341.61
5324.22
5302.8
5300.34
5306.37
5307.88
5307.71
5306.94
5306.02
5305.19
5304.59
5304.28
6042.46
6042.25
6041.86
6041.28
6040.55
6039.68
6038.7
6037.63
6036.48
6035.27
6034
6032.68
6031.31
6029.9
6028.44
6026.93
6025.37
6023.77
6022.1
6020.38
6018.6
6016.75
6014.83
6012.85
6010.79
6008.67
6006.48
6004.23
6001.93
5999.59
5997.2
5994.79
5992.34
5989.87
5987.37
5984.83
5982.27
5979.68
5977.07
5974.45
5971.82
5969.19
5966.57
5963.96
5961.37
5958.8
5956.26
5953.74
5951.26
5948.81
5946.39
5944.01
5941.64
5939.3
5936.98
5934.66
5932.35
5930.02
5927.69
5925.33
5922.94
5920.52
5918.06
5915.55
5912.99
5910.39
5907.73
5905.03
5902.3
5899.52
5896.72
5893.9
5891.06
5888.19
5885.31
5882.4
5879.48
5876.53
5873.57
5870.6
5867.61
5864.62
5861.62
5858.62
5855.62
5852.62
5849.62
5846.63
5843.63
5840.62
5837.61
5834.59
5831.56
5828.52
5825.46
5822.38
5819.27
5816.15
5813
5809.83
5806.62
5803.38
5800.11
5796.81
5793.47
5790.09
5786.68
5783.23
5779.74
5776.22
5772.66
5769.07
5765.45
5761.81
5758.17
5754.56
5751.06
5747.88
5745.53
5740.94
5724.14
5704.34
5686.74
5673.13
5664.48
5659.73
5656.49
5654.91
5652.93
5604.28
5536.35
5477.09
5423.14
5374.61
5335.03
5313.78
5309.79
5309.38
5306.49
5296.74
5290.15
5292.76
5294.81
5295.99
5296.32
5296.15
5295.75
5295.32
5294.98
5294.79
6039.62
6039.46
6039.14
6038.68
6038.09
6037.38
6036.57
6035.68
6034.7
6033.66
6032.55
6031.39
6030.17
6028.89
6027.56
6026.17
6024.72
6023.21
6021.64
6020
6018.29
6016.5
6014.63
6012.68
6010.65
6008.54
6006.35
6004.1
6001.78
5999.42
5997.03
5994.6
5992.15
5989.67
5987.15
5984.6
5982.02
5979.41
5976.77
5974.11
5971.45
5968.78
5966.13
5963.5
5960.88
5958.29
5955.74
5953.22
5950.74
5948.3
5945.9
5943.53
5941.21
5938.9
5936.62
5934.35
5932.08
5929.8
5927.51
5925.2
5922.85
5920.47
5918.03
5915.55
5913
5910.4
5907.74
5905.03
5902.28
5899.49
5896.67
5893.83
5890.98
5888.11
5885.21
5882.3
5879.37
5876.42
5873.44
5870.46
5867.46
5864.45
5861.45
5858.44
5855.44
5852.45
5849.47
5846.49
5843.51
5840.53
5837.54
5834.55
5831.55
5828.54
5825.52
5822.48
5819.43
5816.35
5813.26
5810.14
5807
5803.84
5800.65
5797.43
5794.19
5790.93
5787.64
5784.34
5781.03
5777.71
5774.38
5771.07
5767.78
5764.53
5761.36
5758.31
5755.43
5752.86
5750.84
5749.07
5730.04
5704.52
5686.28
5669.84
5657.7
5647.83
5638.48
5627.22
5606.99
5552.74
5494.36
5435.99
5377.49
5318.34
5262.1
5241.86
5259.01
5271.64
5278.25
5277.61
5279.45
5283.12
5284.07
5284.93
5285.41
5285.55
5285.49
5285.33
5285.18
5285.09
6036.85
6036.72
6036.48
6036.12
6035.66
6035.1
6034.45
6033.72
6032.91
6032.04
6031.09
6030.09
6029.01
6027.88
6026.68
6025.41
6024.07
6022.67
6021.19
6019.64
6018
6016.28
6014.46
6012.55
6010.55
6008.45
6006.25
6003.98
6001.64
5999.26
5996.84
5994.41
5991.94
5989.46
5986.93
5984.37
5981.76
5979.12
5976.44
5973.74
5971.03
5968.33
5965.64
5962.97
5960.33
5957.72
5955.15
5952.62
5950.14
5947.71
5945.33
5943
5940.71
5938.45
5936.22
5934
5931.79
5929.57
5927.33
5925.07
5922.77
5920.43
5918.03
5915.57
5913.04
5910.44
5907.77
5905.04
5902.26
5899.45
5896.61
5893.76
5890.89
5888.01
5885.11
5882.2
5879.25
5876.29
5873.3
5870.3
5867.28
5864.26
5861.24
5858.23
5855.23
5852.25
5849.28
5846.31
5843.36
5840.41
5837.45
5834.5
5831.53
5828.56
5825.58
5822.58
5819.57
5816.55
5813.51
5810.45
5807.38
5804.29
5801.18
5798.05
5794.91
5791.76
5788.6
5785.45
5782.3
5779.17
5776.07
5773.02
5770.04
5767.15
5764.4
5761.83
5759.45
5757.16
5754.23
5753.57
5737.65
5708.55
5684.02
5662.24
5642.84
5624.44
5605.14
5582.21
5550.99
5505.35
5452.37
5395
5332.49
5259.14
5198.38
5186.17
5212.75
5239.9
5257.46
5265.27
5269.19
5272.63
5273.4
5274.21
5274.8
5275.14
5275.28
5275.31
5275.3
5275.27
6034.1
6034.01
6033.83
6033.57
6033.23
6032.81
6032.32
6031.75
6031.12
6030.41
6029.63
6028.78
6027.86
6026.86
6025.8
6024.66
6023.44
6022.15
6020.77
6019.3
6017.75
6016.1
6014.34
6012.48
6010.5
6008.4
6006.19
6003.88
6001.5
5999.08
5996.64
5994.19
5991.73
5989.24
5986.72
5984.14
5981.51
5978.82
5976.09
5973.34
5970.57
5967.82
5965.09
5962.39
5959.71
5957.07
5954.48
5951.94
5949.45
5947.03
5944.68
5942.39
5940.14
5937.94
5935.77
5933.62
5931.47
5929.32
5927.15
5924.95
5922.71
5920.42
5918.06
5915.64
5913.13
5910.53
5907.84
5905.07
5902.25
5899.4
5896.53
5893.66
5890.79
5887.91
5885.01
5882.08
5879.13
5876.15
5873.15
5870.12
5867.08
5864.04
5861
5857.98
5854.98
5852.01
5849.05
5846.11
5843.18
5840.26
5837.34
5834.42
5831.49
5828.56
5825.62
5822.67
5819.71
5816.74
5813.75
5810.76
5807.75
5804.73
5801.7
5798.66
5795.62
5792.57
5789.54
5786.52
5783.52
5780.57
5777.68
5774.87
5772.17
5769.6
5767.23
5765.1
5763.3
5762
5759.03
5757.28
5740
5708.04
5679.02
5652.28
5626.99
5601.92
5575.46
5545.48
5509.42
5465.3
5414.77
5359.15
5298.33
5230.48
5187.48
5181.98
5191.51
5217.76
5241.65
5254.16
5256.28
5261.56
5262.68
5263.67
5264.4
5264.88
5265.16
5265.31
5265.38
5265.4
6031.35
6031.3
6031.19
6031.02
6030.8
6030.52
6030.18
6029.78
6029.32
6028.78
6028.17
6027.48
6026.71
6025.87
6024.94
6023.93
6022.83
6021.65
6020.38
6019.02
6017.55
6015.98
6014.29
6012.47
6010.52
6008.42
6006.18
6003.82
6001.37
5998.88
5996.41
5993.95
5991.5
5989.03
5986.52
5983.94
5981.27
5978.53
5975.74
5972.91
5970.07
5967.26
5964.48
5961.74
5959.03
5956.35
5953.73
5951.16
5948.67
5946.26
5943.94
5941.69
5939.51
5937.38
5935.28
5933.2
5931.13
5929.06
5926.96
5924.84
5922.67
5920.44
5918.14
5915.76
5913.27
5910.67
5907.95
5905.13
5902.25
5899.34
5896.43
5893.54
5890.67
5887.79
5884.9
5881.97
5879.01
5876.02
5872.99
5869.93
5866.86
5863.79
5860.72
5857.69
5854.68
5851.72
5848.78
5845.87
5842.97
5840.08
5837.2
5834.32
5831.43
5828.54
5825.64
5822.74
5819.83
5816.91
5813.98
5811.05
5808.11
5805.16
5802.2
5799.25
5796.29
5793.35
5790.43
5787.53
5784.68
5781.89
5779.18
5776.58
5774.12
5771.84
5769.77
5768
5766.6
5765.71
5763.86
5760.65
5740.36
5704.57
5671.75
5640.85
5610.91
5580.82
5549.29
5514.82
5475.92
5431.64
5382.27
5328.49
5271.21
5212.79
5180.77
5177.6
5176.35
5197.99
5228.53
5244.36
5244.86
5249.81
5252.05
5253.36
5254.22
5254.79
5255.15
5255.36
5255.48
5255.53
6028.58
6028.55
6028.51
6028.44
6028.34
6028.21
6028.04
6027.81
6027.52
6027.16
6026.72
6026.2
6025.59
6024.89
6024.1
6023.23
6022.26
6021.2
6020.04
6018.78
6017.41
6015.93
6014.31
6012.55
6010.64
6008.55
6006.27
6003.79
6001.22
5998.63
5996.12
5993.66
5991.25
5988.83
5986.35
5983.77
5981.07
5978.26
5975.38
5972.45
5969.51
5966.63
5963.8
5961.02
5958.27
5955.55
5952.88
5950.28
5947.77
5945.38
5943.09
5940.9
5938.79
5936.74
5934.73
5932.75
5930.77
5928.78
5926.78
5924.74
5922.65
5920.5
5918.28
5915.95
5913.5
5910.89
5908.13
5905.23
5902.24
5899.24
5896.29
5893.39
5890.52
5887.67
5884.79
5881.87
5878.9
5875.88
5872.82
5869.73
5866.61
5863.49
5860.39
5857.33
5854.32
5851.37
5848.46
5845.58
5842.72
5839.88
5837.03
5834.19
5831.34
5828.49
5825.64
5822.78
5819.92
5817.06
5814.19
5811.32
5808.44
5805.56
5802.68
5799.8
5796.93
5794.08
5791.26
5788.47
5785.74
5783.1
5780.55
5778.13
5775.87
5773.81
5771.99
5770.47
5769.32
5768.63
5767.46
5762.71
5736.94
5698.14
5662.54
5628.47
5594.97
5561.16
5526.05
5488.59
5447.81
5403.06
5354.19
5301.34
5245.22
5193.51
5173.35
5173.15
5172.41
5188.52
5218.56
5235.26
5238.85
5240.73
5242.32
5243.48
5244.3
5244.87
5245.25
5245.48
5245.62
5245.68
6025.74
6025.76
6025.78
6025.81
6025.85
6025.87
6025.87
6025.83
6025.73
6025.55
6025.29
6024.94
6024.49
6023.95
6023.31
6022.57
6021.73
6020.79
6019.76
6018.61
6017.35
6015.97
6014.44
6012.76
6010.89
6008.82
6006.5
6003.83
6001.06
5998.28
5995.73
5993.3
5990.96
5988.64
5986.25
5983.7
5980.94
5978.04
5975.03
5971.95
5968.87
5965.91
5963.04
5960.23
5957.44
5954.67
5951.93
5949.27
5946.73
5944.35
5942.11
5939.99
5937.98
5936.03
5934.13
5932.25
5930.38
5928.5
5926.6
5924.66
5922.67
5920.62
5918.48
5916.24
5913.84
5911.25
5908.43
5905.37
5902.22
5899.08
5896.06
5893.16
5890.33
5887.54
5884.7
5881.79
5878.81
5875.76
5872.66
5869.52
5866.34
5863.15
5859.99
5856.89
5853.88
5850.95
5848.07
5845.25
5842.44
5839.64
5836.84
5834.04
5831.23
5828.43
5825.62
5822.81
5820
5817.19
5814.38
5811.57
5808.75
5805.94
5803.13
5800.32
5797.53
5794.76
5792.02
5789.32
5786.7
5784.17
5781.75
5779.48
5777.39
5775.5
5773.87
5772.52
5771.5
5770.89
5770.19
5757.24
5724.98
5688.51
5651.81
5615.51
5579.35
5542.8
5505.16
5465.68
5423.68
5378.61
5330.07
5277.46
5219.01
5176.86
5169.73
5169.38
5169.84
5180.74
5208.6
5226.79
5230.95
5231.9
5232.98
5233.9
5234.61
5235.12
5235.46
5235.68
5235.8
5235.85
6022.82
6022.87
6022.97
6023.11
6023.29
6023.49
6023.68
6023.84
6023.95
6023.97
6023.9
6023.73
6023.44
6023.05
6022.56
6021.96
6021.25
6020.44
6019.53
6018.51
6017.37
6016.1
6014.68
6013.09
6011.32
6009.28
6007.04
6003.94
6000.87
5997.65
5995.18
5992.82
5990.63
5988.49
5986.27
5983.8
5980.93
5977.89
5974.72
5971.42
5968.09
5965.05
5962.19
5959.39
5956.57
5953.72
5950.87
5948.1
5945.51
5943.15
5940.98
5938.96
5937.06
5935.24
5933.47
5931.72
5929.98
5928.21
5926.42
5924.59
5922.72
5920.78
5918.77
5916.64
5914.36
5911.82
5908.93
5905.59
5902.15
5898.76
5895.7
5892.83
5890.1
5887.41
5884.66
5881.76
5878.75
5875.67
5872.53
5869.32
5866.06
5862.76
5859.48
5856.34
5853.33
5850.43
5847.62
5844.86
5842.12
5839.38
5836.63
5833.87
5831.1
5828.33
5825.57
5822.81
5820.05
5817.29
5814.54
5811.79
5809.03
5806.28
5803.54
5800.8
5798.08
5795.37
5792.7
5790.08
5787.53
5785.09
5782.78
5780.63
5778.66
5776.91
5775.41
5774.17
5773.22
5772.56
5771.96
5753.97
5717.24
5679.11
5640.69
5602.39
5564.13
5525.53
5486.1
5445.29
5402.61
5357.64
5310.04
5259.4
5204.82
5171.56
5167.48
5167.08
5167.96
5178.85
5203.41
5217.75
5222.15
5222.9
5223.76
5224.51
5225.09
5225.5
5225.77
5225.93
5226.02
5226.06
6019.77
6019.86
6020.04
6020.31
6020.65
6021.05
6021.46
6021.85
6022.19
6022.43
6022.55
6022.56
6022.45
6022.21
6021.86
6021.4
6020.83
6020.16
6019.37
6018.48
6017.48
6016.34
6015.05
6013.56
6011.97
6009.9
6008.37
6004.9
5999.85
5996.24
5994.48
5992.12
5990.2
5988.39
5986.5
5984.25
5981.05
5977.83
5974.49
5970.9
5966.97
5963.96
5961.25
5958.53
5955.7
5952.74
5949.69
5946.7
5944.04
5941.71
5939.65
5937.78
5936.04
5934.38
5932.76
5931.16
5929.56
5927.92
5926.25
5924.55
5922.8
5921
5919.14
5917.19
5915.09
5912.72
5909.85
5905.87
5902.02
5898.09
5895.12
5892.33
5889.78
5887.32
5884.74
5881.81
5878.75
5875.61
5872.42
5869.14
5865.78
5862.31
5858.82
5855.64
5852.63
5849.81
5847.1
5844.43
5841.77
5839.09
5836.39
5833.67
5830.94
5828.21
5825.48
5822.77
5820.07
5817.37
5814.67
5811.98
5809.28
5806.6
5803.91
5801.24
5798.57
5795.92
5793.29
5790.72
5788.23
5785.85
5783.61
5781.55
5779.68
5778.03
5776.63
5775.49
5774.56
5773.6
5773.01
5752
5710.91
5670
5629.44
5589.25
5549.24
5509.1
5468.42
5426.79
5383.83
5339.29
5293.04
5245.3
5196.63
5169.52
5166.63
5166.74
5167.55
5170.68
5191.67
5207.27
5212.77
5213.75
5214.61
5215.26
5215.71
5215.99
5216.15
5216.23
5216.26
5216.27
6016.56
6016.69
6016.96
6017.36
6017.89
6018.52
6019.2
6019.87
6020.46
6020.94
6021.27
6021.47
6021.52
6021.44
6021.24
6020.91
6020.47
6019.93
6019.28
6018.53
6017.67
6016.7
6015.56
6014.09
6013.03
6011.71
6009.31
6004.21
5999.11
5995.7
5993.04
5990.95
5989.63
5988.34
5987.05
5985.63
5983.22
5979.31
5973.63
5968.57
5964.87
5962.55
5960.27
5957.75
5954.92
5951.8
5948.41
5944.95
5942.2
5939.98
5938.1
5936.44
5934.9
5933.44
5932.01
5930.58
5929.13
5927.64
5926.1
5924.51
5922.89
5921.24
5919.57
5917.86
5916.06
5914.08
5911.85
5907.34
5901
5896.43
5894.34
5891.55
5889.35
5887.33
5885.13
5881.96
5878.78
5875.59
5872.37
5869.04
5865.57
5861.87
5857.83
5854.72
5851.73
5849.05
5846.5
5843.97
5841.41
5838.8
5836.15
5833.46
5830.75
5828.04
5825.36
5822.7
5820.05
5817.41
5814.77
5812.14
5809.5
5806.87
5804.25
5801.63
5799.02
5796.41
5793.8
5791.25
5788.77
5786.42
5784.24
5782.24
5780.44
5778.87
5777.55
5776.54
5775.88
5774.75
5773.55
5749.66
5704.38
5660.54
5617.83
5575.92
5534.49
5493.2
5451.68
5409.6
5366.65
5322.63
5277.55
5232.12
5189.45
5168.52
5166.41
5166.45
5166.97
5169.05
5186.63
5198.67
5202.86
5204.67
5205.64
5206.18
5206.46
5206.57
5206.58
5206.54
5206.49
5206.46
6013.14
6013.32
6013.67
6014.22
6014.96
6015.87
6016.89
6017.9
6018.79
6019.53
6020.09
6020.47
6020.69
6020.75
6020.68
6020.49
6020.18
6019.77
6019.26
6018.64
6017.93
6017.18
6016.36
6015.37
6013.88
6009.58
6004.85
5999.98
5996.38
5993.64
5991.86
5990.12
5988.99
5988.25
5987.71
5986.98
5983.41
5977.78
5971.86
5966.78
5963.17
5961.05
5959.51
5957.23
5954.41
5951.09
5947.19
5942.44
5939.79
5937.88
5936.31
5934.93
5933.65
5932.43
5931.22
5929.99
5928.71
5927.37
5925.96
5924.49
5922.99
5921.49
5920
5918.58
5917.19
5915.66
5914.08
5908.28
5900.03
5895.35
5892.6
5890.16
5888.72
5887.48
5886.47
5884.57
5880
5875.21
5872.86
5869.1
5864.17
5859.39
5855.86
5853.66
5850.49
5848.12
5845.84
5843.5
5841.06
5838.53
5835.92
5833.25
5830.53
5827.82
5825.18
5822.58
5820
5817.42
5814.84
5812.26
5809.68
5807.1
5804.54
5801.98
5799.43
5796.85
5794.23
5791.65
5789.15
5786.79
5784.64
5782.69
5780.93
5779.39
5778.11
5777.16
5776.58
5775.74
5773.68
5745.8
5696.4
5649.95
5605.41
5562.12
5519.61
5477.52
5435.51
5393.28
5350.54
5307.02
5262.4
5216.19
5179.07
5166.81
5166.13
5166.16
5166.18
5167.65
5183.35
5193.78
5195.29
5196.42
5197.06
5197.33
5197.35
5197.23
5197.03
5196.83
5196.67
5196.59
6009.5
6009.7
6010.13
6010.82
6011.8
6013.06
6014.53
6015.98
6017.23
6018.25
6019.03
6019.59
6019.95
6020.15
6020.21
6020.13
6019.95
6019.67
6019.29
6018.81
6018.17
6017.68
6017.01
6012.72
6007.64
6001.7
5997.21
5993.58
5991
5989.46
5989.1
5989.43
5988.5
5987.93
5987.81
5987.25
5982.58
5975.18
5968.73
5963.5
5960.05
5958.61
5958.5
5956.84
5953.45
5948.22
5942.31
5937.8
5936.61
5935.4
5934.3
5933.29
5932.33
5931.39
5930.43
5929.42
5928.33
5927.14
5925.85
5924.47
5923.07
5921.68
5920.36
5919.23
5918.44
5917.59
5913.46
5904.52
5896.69
5891.57
5889.03
5887.57
5887.86
5887.39
5886.85
5885.03
5879.35
5872.29
5868.56
5865.55
5861.65
5858.12
5854.39
5851.12
5848.41
5847.07
5845.23
5843.1
5840.78
5838.31
5835.73
5833.04
5830.28
5827.5
5824.92
5822.41
5819.92
5817.41
5814.88
5812.35
5809.81
5807.29
5804.78
5802.3
5799.82
5797.28
5794.59
5791.93
5789.35
5786.91
5784.8
5782.89
5781.15
5779.59
5778.3
5777.32
5776.76
5776.01
5772.94
5738.11
5685.49
5637.44
5591.74
5547.53
5504.32
5461.76
5419.56
5377.47
5335.22
5292.52
5248.85
5203.21
5172.42
5166.11
5165.79
5165.88
5165.99
5166.8
5178.23
5187.42
5188.07
5188.61
5188.81
5188.7
5188.36
5187.91
5187.45
5187.05
5186.76
5186.6
6005.58
6005.8
6006.27
6007.07
6008.28
6010
6012.14
6014.19
6015.86
6017.16
6018.14
6018.85
6019.35
6019.66
6019.82
6019.85
6019.78
6019.62
6019.4
6019.1
6018.68
6017.24
6011.29
6003.16
5997.27
5992.39
5988.71
5986.11
5984.59
5984.11
5984.77
5986.79
5987.67
5987.65
5987.17
5986.29
5980.43
5971.63
5964.39
5958.04
5954.45
5955.79
5956.41
5953.37
5946.32
5938.95
5935.63
5933.92
5933.41
5932.79
5932.17
5931.55
5930.95
5930.33
5929.66
5928.91
5928.03
5927
5925.78
5924.46
5923.11
5921.76
5920.5
5919.52
5918.9
5918.48
5911.91
5900.17
5890.4
5883.22
5878.74
5878.07
5881.47
5885.31
5885.26
5880.74
5872.47
5865.14
5862.18
5860.28
5857.4
5854.98
5851.84
5849.17
5847.52
5846.49
5844.87
5842.87
5840.61
5838.18
5835.6
5832.89
5830.02
5826.94
5824.55
5822.21
5819.82
5817.37
5814.89
5812.4
5809.9
5807.42
5804.97
5802.57
5800.23
5797.84
5794.85
5792.07
5789.37
5786.66
5784.69
5782.89
5781.13
5779.45
5778.08
5777.03
5776.44
5775.76
5760.69
5717.87
5669.99
5622.59
5576.59
5531.94
5488.38
5445.64
5403.51
5361.8
5320.36
5278.97
5237.27
5194.61
5168.82
5165.19
5165.36
5165.57
5165.84
5167.27
5173.28
5180.39
5180.94
5181.11
5180.85
5180.25
5179.45
5178.58
5177.78
5177.13
5176.67
5176.43
6001.38
6001.58
6002.03
6002.84
6004.2
6006.44
6009.8
6012.72
6014.81
6016.34
6017.46
6018.29
6018.88
6019.28
6019.52
6019.64
6019.66
6019.61
6019.51
6018.9
6013.74
6007.42
5998.79
5991.42
5985.9
5981.87
5979.14
5977.58
5977.14
5977.61
5979.11
5982.24
5985.75
5984.38
5984.48
5984.28
5976.25
5966.52
5959.16
5953.27
5951.05
5953.43
5954.09
5947.29
5937.03
5930.35
5930.5
5930.38
5930.3
5930.16
5929.99
5929.78
5929.56
5929.29
5928.95
5928.49
5927.85
5927.01
5925.78
5924.46
5923.1
5921.73
5920.36
5919.4
5918.73
5918.03
5909.35
5893.87
5881.53
5872.18
5865.35
5862.67
5864.65
5867.65
5873.42
5871.09
5864.85
5861.1
5859.47
5857.44
5855.19
5853.75
5851.58
5849.34
5847.89
5846.21
5844.49
5842.62
5840.23
5837.73
5835.3
5832.51
5828.9
5825.68
5824.09
5822.02
5819.73
5817.34
5814.89
5812.41
5809.93
5807.48
5805.08
5802.76
5800.63
5798.93
5795.05
5792.29
5788.59
5785.6
5784.37
5782.75
5780.95
5778.94
5777.51
5776.28
5775.6
5774.59
5750.86
5702.68
5654
5606.33
5560.1
5515.27
5471.61
5428.91
5387.02
5345.88
5305.45
5265.74
5226.66
5187.81
5166.18
5164.27
5164.74
5165.2
5165.83
5167.03
5169.15
5173.03
5174.13
5174.02
5173.21
5171.98
5170.56
5169.16
5167.94
5166.98
5166.33
5166
5996.91
5997.05
5997.37
5997.99
5999.18
6001.67
6007.84
6012.02
6014.28
6015.86
6017.05
6017.93
6018.56
6019.01
6019.3
6019.48
6019.59
6019.59
6015.18
6009.42
6000.78
5993.07
5985.06
5977.83
5973.03
5970.05
5968.38
5967.92
5968.79
5970.07
5971.8
5974.15
5977.23
5976.01
5976.31
5975.12
5966.84
5959.06
5952.44
5946.99
5944.89
5946.35
5945.18
5938.8
5930.72
5926.04
5925.7
5926.89
5927.22
5927.54
5927.8
5928.01
5928.18
5928.3
5928.34
5928.22
5927.83
5927.39
5926.4
5924.61
5922.84
5921.17
5919.75
5918.98
5917.89
5915.55
5904.76
5884.53
5869.64
5858.62
5850.39
5847.15
5846.85
5843.84
5854.66
5865.41
5861.49
5859.64
5859.5
5857.34
5854.9
5853.13
5851.7
5850.34
5842.92
5836.65
5833.11
5830.3
5827.61
5825.08
5822.66
5820.19
5817.95
5817.03
5815.58
5813.73
5811.74
5809.91
5808.91
5810.23
5809.2