/*--------------------------------*- C++ -*----------------------------------*\
| =========                 |                                                 |
| \\      /  F ield         | OpenFOAM: The Open Source CFD Toolbox           |
|  \\    /   O peration     | Version:  2.1.0                                 |
|   \\  /    A nd           | Web:      www.OpenFOAM.org                      |
|    \\/     M anipulation  |                                                 |
\*---------------------------------------------------------------------------*/
FoamFile
{
    version     2.0;
    format      ascii;
    class       volScalarField;
    location    "48180";
    object      so;
}
// * * * * * * * * * * * * * * * * * * * * * * * * * * * * * * * * * * * * * //

dimensions      [0 0 0 0 0 0 0];

internalField   nonuniform List<scalar> 
15000
(
0.2
0.200001
0.200004
0.200034
0.200466
0.202569
0.207715
0.215878
0.225948
0.236819
0.247794
0.258513
0.268812
0.278626
0.287938
0.296755
0.305094
0.312978
0.320431
0.327479
0.334147
0.340462
0.346446
0.352125
0.35752
0.362654
0.367546
0.372217
0.376683
0.380962
0.38507
0.389021
0.39283
0.396508
0.400068
0.403522
0.406879
0.410149
0.413341
0.41646
0.419515
0.42251
0.42545
0.428341
0.431187
0.43399
0.436753
0.43948
0.442171
0.444829
0.447453
0.450045
0.452604
0.45513
0.457623
0.460081
0.462505
0.464892
0.467242
0.469555
0.471829
0.474064
0.476261
0.478419
0.480538
0.48262
0.484666
0.486675
0.48865
0.490592
0.492503
0.494383
0.496234
0.498057
0.499855
0.501627
0.503375
0.5051
0.506804
0.508487
0.510151
0.511796
0.513422
0.515029
0.51662
0.518192
0.519748
0.521286
0.522807
0.524309
0.525794
0.52726
0.528708
0.530136
0.531543
0.53293
0.534294
0.535636
0.536953
0.538245
0.53951
0.540748
0.541957
0.543136
0.544285
0.545401
0.546484
0.547533
0.548547
0.549526
0.550471
0.551381
0.552258
0.553102
0.553914
0.554697
0.55545
0.556176
0.556877
0.557555
0.558216
0.558869
0.559527
0.560207
0.560928
0.561711
0.562566
0.56347
0.564338
0.565054
0.565597
0.565989
0.566267
0.566545
0.566826
0.567113
0.56741
0.567719
0.568042
0.568382
0.568746
0.569141
0.56958
0.570081
0.570669
0.571382
0.572287
0.573513
0.575384
0.579226
0.200001
0.200004
0.200009
0.200094
0.200867
0.203747
0.209749
0.218447
0.228697
0.239529
0.250368
0.260919
0.27105
0.28071
0.289884
0.29858
0.306814
0.314605
0.321978
0.328956
0.335562
0.341822
0.347758
0.353393
0.358748
0.363844
0.368702
0.37334
0.377777
0.382028
0.386109
0.390035
0.39382
0.397476
0.401015
0.404448
0.407785
0.411037
0.414209
0.417311
0.420348
0.423325
0.426249
0.429123
0.431952
0.43474
0.437489
0.440202
0.44288
0.445525
0.448138
0.45072
0.453269
0.455787
0.458273
0.460725
0.463143
0.465526
0.467872
0.470181
0.472452
0.474685
0.476879
0.479035
0.481152
0.483232
0.485276
0.487283
0.489256
0.491196
0.493105
0.494983
0.496832
0.498654
0.500449
0.502219
0.503965
0.505689
0.507391
0.509073
0.510735
0.512379
0.514004
0.515611
0.517201
0.518773
0.520329
0.521869
0.523391
0.524896
0.526384
0.527854
0.529307
0.530741
0.532156
0.533552
0.534927
0.53628
0.537611
0.53892
0.540204
0.541464
0.542698
0.543907
0.545089
0.546244
0.547372
0.548473
0.549548
0.550597
0.551624
0.552629
0.553616
0.554586
0.555544
0.556492
0.557431
0.558361
0.559284
0.560202
0.561125
0.562076
0.563092
0.564227
0.565554
0.567157
0.569101
0.571342
0.573539
0.575136
0.576166
0.576759
0.577034
0.577194
0.577245
0.57721
0.577136
0.577042
0.576915
0.576731
0.57648
0.576176
0.575852
0.575552
0.575327
0.575235
0.575349
0.575804
0.576919
0.580018
0.200004
0.200008
0.20004
0.200363
0.201937
0.206076
0.213138
0.222345
0.232661
0.24333
0.253919
0.264208
0.274093
0.283533
0.292515
0.301044
0.309133
0.316799
0.324063
0.330944
0.337466
0.343649
0.349517
0.355089
0.360386
0.365429
0.370237
0.374828
0.379219
0.383428
0.38747
0.391358
0.395106
0.398727
0.402232
0.405633
0.408939
0.41216
0.415303
0.418376
0.421384
0.424334
0.427231
0.430079
0.432883
0.435647
0.438374
0.441066
0.443725
0.446352
0.448949
0.451516
0.454054
0.456561
0.459037
0.461481
0.463892
0.466269
0.468611
0.470916
0.473183
0.475413
0.477605
0.479758
0.481872
0.48395
0.48599
0.487994
0.489964
0.491901
0.493806
0.49568
0.497525
0.499343
0.501135
0.502901
0.504644
0.506364
0.508064
0.509742
0.511402
0.513042
0.514665
0.51627
0.517859
0.519431
0.520988
0.522528
0.524053
0.525561
0.527052
0.528527
0.529986
0.531428
0.532853
0.534259
0.535648
0.537016
0.538365
0.539694
0.541002
0.54229
0.543556
0.544801
0.546025
0.547229
0.548414
0.549582
0.550734
0.551874
0.553007
0.554138
0.555273
0.556418
0.557583
0.558774
0.559998
0.561258
0.562552
0.563874
0.565233
0.566668
0.568256
0.570116
0.572412
0.575353
0.579139
0.583789
0.58836
0.590958
0.592401
0.593131
0.593386
0.5933
0.592869
0.592139
0.591321
0.59048
0.589559
0.588465
0.587153
0.585668
0.584092
0.58253
0.581082
0.579837
0.578887
0.578363
0.578583
0.580859
0.200032
0.200088
0.200351
0.201426
0.204407
0.210031
0.218016
0.227509
0.237709
0.248082
0.258324
0.268275
0.277853
0.287022
0.295769
0.304096
0.312009
0.319523
0.326653
0.333418
0.339835
0.345924
0.351705
0.357198
0.362423
0.367397
0.37214
0.376669
0.381003
0.385156
0.389144
0.392982
0.396681
0.400255
0.403715
0.407073
0.410337
0.413516
0.416619
0.419652
0.422621
0.425533
0.428393
0.431207
0.433977
0.43671
0.439407
0.442071
0.444704
0.447309
0.449885
0.452434
0.454956
0.457449
0.459914
0.462349
0.464753
0.467123
0.469459
0.47176
0.474024
0.47625
0.478439
0.480588
0.4827
0.484773
0.486809
0.488809
0.490774
0.492706
0.494606
0.496475
0.498315
0.500127
0.501914
0.503675
0.505412
0.507127
0.508821
0.510495
0.51215
0.513787
0.515406
0.517009
0.518596
0.520167
0.521723
0.523265
0.524791
0.526302
0.527798
0.529279
0.530745
0.532196
0.533632
0.535051
0.536455
0.537842
0.539212
0.540565
0.541901
0.543221
0.544525
0.545814
0.547089
0.548352
0.549606
0.550853
0.5521
0.553352
0.554617
0.555906
0.557232
0.55861
0.560062
0.561611
0.563283
0.565097
0.567043
0.56905
0.571093
0.573227
0.575586
0.578376
0.581885
0.586494
0.592625
0.600654
0.608368
0.610852
0.61211
0.61274
0.612961
0.612621
0.611602
0.609845
0.608062
0.606404
0.604664
0.602576
0.599997
0.597041
0.593874
0.590692
0.587685
0.585004
0.582765
0.581104
0.580326
0.581733
0.200425
0.200804
0.201846
0.204315
0.208932
0.215763
0.224264
0.233741
0.243643
0.253613
0.263439
0.273001
0.282233
0.291099
0.299583
0.307682
0.315399
0.32274
0.32972
0.33635
0.342647
0.348628
0.354309
0.35971
0.364847
0.369739
0.374405
0.37886
0.383122
0.387208
0.391131
0.394905
0.398545
0.402061
0.405465
0.408768
0.411979
0.415107
0.418158
0.421141
0.424061
0.426925
0.429738
0.432507
0.435235
0.437927
0.440586
0.443216
0.445817
0.448393
0.450945
0.453472
0.455974
0.458452
0.460904
0.463328
0.465723
0.468087
0.470418
0.472714
0.474975
0.477198
0.479383
0.481529
0.483636
0.485705
0.487736
0.489731
0.49169
0.493615
0.495508
0.49737
0.499203
0.501008
0.502787
0.504541
0.506272
0.50798
0.509667
0.511335
0.512984
0.514615
0.51623
0.517828
0.519412
0.520982
0.522537
0.524079
0.525607
0.527122
0.528623
0.53011
0.531584
0.533045
0.534493
0.535928
0.537349
0.538756
0.54015
0.541532
0.542901
0.544258
0.545606
0.546945
0.548278
0.549609
0.550942
0.552283
0.553641
0.555024
0.556449
0.557931
0.559498
0.561183
0.563034
0.565115
0.567505
0.570285
0.573413
0.576528
0.579507
0.582455
0.585599
0.589253
0.593831
0.599872
0.608025
0.619509
0.628892
0.62922
0.630086
0.630496
0.630733
0.630442
0.629257
0.626393
0.623814
0.621837
0.61985
0.617253
0.613642
0.609289
0.60448
0.599506
0.594735
0.590436
0.586777
0.583895
0.582081
0.582616
0.20234
0.203468
0.20575
0.209708
0.215545
0.223
0.231572
0.240777
0.250252
0.259753
0.269126
0.278276
0.287142
0.295688
0.303895
0.311753
0.319259
0.326417
0.333233
0.339719
0.345885
0.351746
0.357318
0.362615
0.367655
0.372454
0.377029
0.381399
0.385578
0.389584
0.393431
0.397131
0.4007
0.404148
0.407486
0.410725
0.413872
0.416937
0.419926
0.422847
0.425707
0.428512
0.431269
0.433983
0.436659
0.439301
0.441915
0.444502
0.447065
0.449607
0.452128
0.454629
0.45711
0.459569
0.462006
0.464419
0.466805
0.469162
0.471487
0.47378
0.476037
0.478257
0.480439
0.482582
0.484685
0.486749
0.488775
0.490762
0.492714
0.494631
0.496515
0.498369
0.500193
0.501989
0.503759
0.505504
0.507226
0.508925
0.510604
0.512264
0.513905
0.515529
0.517138
0.518731
0.520311
0.521877
0.523432
0.524973
0.526503
0.528021
0.529528
0.531021
0.532504
0.533977
0.535438
0.536889
0.53833
0.539761
0.541182
0.542594
0.543999
0.545399
0.546795
0.54819
0.549589
0.550996
0.552419
0.553866
0.55535
0.556886
0.558498
0.560215
0.562084
0.564169
0.56657
0.569433
0.572968
0.577438
0.582737
0.587404
0.591347
0.594907
0.598494
0.602538
0.607523
0.614034
0.62275
0.636109
0.640726
0.649881
0.658823
0.671295
0.681785
0.678251
0.662673
0.633341
0.631499
0.630731
0.629893
0.628257
0.624817
0.62004
0.614384
0.607935
0.6015
0.595636
0.590605
0.586556
0.58376
0.583483
0.207052
0.209035
0.212399
0.217322
0.223711
0.231256
0.239582
0.248361
0.257342
0.266351
0.275264
0.283999
0.292498
0.300723
0.308649
0.316262
0.323554
0.330523
0.337172
0.343507
0.349536
0.355272
0.360726
0.365912
0.370845
0.375542
0.380018
0.384291
0.388377
0.392292
0.396051
0.399668
0.403156
0.406526
0.409788
0.412952
0.416026
0.419017
0.421933
0.424781
0.42757
0.430304
0.432993
0.43564
0.438254
0.440837
0.443395
0.445932
0.44845
0.450951
0.453436
0.455907
0.458362
0.460801
0.463222
0.465622
0.467998
0.470349
0.47267
0.474959
0.477214
0.479433
0.481613
0.483753
0.485852
0.487911
0.48993
0.49191
0.493853
0.49576
0.497635
0.499477
0.501291
0.503076
0.504835
0.506569
0.50828
0.509969
0.511637
0.513287
0.514918
0.516534
0.518134
0.519721
0.521295
0.522857
0.524409
0.52595
0.527481
0.529003
0.530514
0.532015
0.533507
0.534991
0.536468
0.537937
0.539399
0.540855
0.542305
0.543752
0.545197
0.546642
0.548091
0.549548
0.551019
0.552511
0.554033
0.555599
0.557225
0.558937
0.560767
0.562766
0.565008
0.567609
0.570747
0.574709
0.579977
0.587294
0.596532
0.602727
0.607097
0.610629
0.613975
0.617625
0.62203
0.62765
0.634967
0.648091
0.678694
0.796967
0.799901
0.799999
0.79725
0.747293
0.745383
0.738518
0.721599
0.707528
0.68449
0.660702
0.630257
0.626493
0.621824
0.614611
0.60698
0.599956
0.593876
0.588891
0.585276
0.584306
0.214575
0.217131
0.221063
0.226336
0.232762
0.240071
0.247988
0.256278
0.264755
0.27328
0.281749
0.290085
0.29823
0.306145
0.313798
0.321172
0.328252
0.335035
0.341517
0.347702
0.353594
0.359202
0.364536
0.369607
0.374428
0.379015
0.383383
0.38755
0.391532
0.395346
0.399008
0.402531
0.405928
0.409211
0.412388
0.415467
0.418456
0.421362
0.424193
0.426957
0.429661
0.432313
0.43492
0.43749
0.440029
0.442542
0.445035
0.447511
0.449975
0.452428
0.454872
0.457307
0.459734
0.46215
0.464552
0.466939
0.469306
0.471651
0.473969
0.476257
0.478512
0.48073
0.482909
0.485048
0.487144
0.489198
0.49121
0.493182
0.495114
0.49701
0.498872
0.500702
0.502503
0.504275
0.506021
0.507742
0.509441
0.511117
0.512773
0.51441
0.51603
0.517634
0.519224
0.520802
0.522368
0.523925
0.525473
0.527012
0.528544
0.530069
0.531586
0.533094
0.534596
0.536093
0.537585
0.539073
0.540558
0.542041
0.543523
0.545007
0.546495
0.54799
0.549496
0.551021
0.55257
0.554154
0.555786
0.557483
0.55927
0.561182
0.563267
0.565602
0.5683
0.571541
0.575612
0.581006
0.588653
0.600334
0.61632
0.622542
0.626191
0.628868
0.63127
0.63381
0.636799
0.640529
0.645337
0.658378
0.703262
0.775941
0.799041
0.799979
0.799987
0.798965
0.798388
0.797409
0.795708
0.794527
0.739743
0.726906
0.668659
0.643409
0.623559
0.616893
0.609813
0.602767
0.596296
0.590762
0.586569
0.585068
0.223891
0.226681
0.230752
0.235982
0.242174
0.249104
0.256563
0.264366
0.272366
0.280442
0.2885
0.296466
0.304283
0.311907
0.319304
0.326451
0.333332
0.339937
0.34626
0.352301
0.35806
0.363544
0.368759
0.373713
0.37842
0.382892
0.387145
0.391197
0.395065
0.398768
0.402323
0.405743
0.409041
0.412228
0.41531
0.418294
0.421188
0.423998
0.426731
0.429397
0.432002
0.434557
0.43707
0.439547
0.441998
0.444428
0.446843
0.449248
0.451647
0.454044
0.456439
0.458834
0.461227
0.463616
0.466
0.468373
0.470732
0.473072
0.475389
0.477678
0.479935
0.482157
0.484338
0.486477
0.488572
0.490621
0.492626
0.494588
0.496508
0.498391
0.500238
0.502054
0.503839
0.505596
0.507327
0.509034
0.510717
0.512379
0.51402
0.515642
0.517247
0.518837
0.520414
0.52198
0.523537
0.525086
0.526629
0.528166
0.529697
0.531224
0.532747
0.534265
0.535777
0.537287
0.538795
0.540304
0.541813
0.543325
0.544841
0.546364
0.547897
0.549446
0.551015
0.552613
0.554248
0.555933
0.557686
0.55953
0.561498
0.563639
0.566023
0.568754
0.571995
0.575995
0.581163
0.58823
0.598724
0.615972
0.640942
0.644777
0.647417
0.649045
0.650099
0.650993
0.651997
0.653189
0.654788
0.670733
0.735359
0.790331
0.799595
0.799991
0.8
0.799985
0.799968
0.799935
0.799888
0.799869
0.796781
0.795625
0.780809
0.649233
0.623935
0.61777
0.611224
0.604459
0.59796
0.592179
0.587632
0.585764
0.233942
0.236752
0.240734
0.245746
0.251607
0.258133
0.265151
0.272511
0.280083
0.287759
0.295452
0.303089
0.310612
0.317974
0.32514
0.332082
0.338781
0.345223
0.351401
0.35731
0.362947
0.368316
0.373418
0.378261
0.382854
0.387209
0.391342
0.395271
0.399015
0.402597
0.406034
0.409341
0.412531
0.415613
0.418591
0.421471
0.424258
0.426959
0.429581
0.432132
0.434624
0.437065
0.439465
0.441834
0.444181
0.446512
0.448834
0.451154
0.453477
0.455806
0.458144
0.460491
0.462846
0.465206
0.467569
0.469928
0.47228
0.474618
0.476937
0.479231
0.481495
0.483723
0.48591
0.488053
0.490149
0.492195
0.494193
0.496144
0.49805
0.499917
0.501747
0.503544
0.505312
0.507052
0.508767
0.510456
0.512122
0.513766
0.51539
0.516994
0.518581
0.520154
0.521714
0.523265
0.52481
0.526348
0.527884
0.529416
0.530947
0.532475
0.534003
0.535529
0.537051
0.538574
0.540101
0.541631
0.543167
0.54471
0.546263
0.547829
0.549414
0.551021
0.552659
0.554336
0.556066
0.557863
0.559751
0.561761
0.563937
0.566343
0.569074
0.572268
0.576132
0.580985
0.587345
0.596178
0.609575
0.631966
0.660595
0.688704
0.711508
0.748112
0.782304
0.793682
0.782566
0.760363
0.700385
0.711289
0.776565
0.799206
0.799977
0.799999
0.8
0.8
0.799999
0.799999
0.799998
0.799997
0.799924
0.799889
0.799046
0.62974
0.623808
0.618232
0.611812
0.605438
0.599078
0.593232
0.588498
0.5864
0.244043
0.246774
0.250583
0.255332
0.260864
0.26702
0.273654
0.280633
0.287842
0.29518
0.302563
0.309919
0.317189
0.324325
0.331289
0.338053
0.344595
0.350898
0.356951
0.362747
0.368281
0.373551
0.378555
0.383298
0.387785
0.392025
0.396034
0.399832
0.403443
0.40689
0.410197
0.41338
0.416452
0.419418
0.422284
0.42505
0.427719
0.430297
0.432791
0.435211
0.437569
0.439876
0.442144
0.444384
0.446606
0.448819
0.451031
0.453249
0.455479
0.457728
0.459996
0.462287
0.464597
0.466925
0.469265
0.471611
0.473957
0.476296
0.478622
0.480926
0.483202
0.485443
0.487642
0.489795
0.491904
0.493963
0.495962
0.497901
0.49979
0.501635
0.503443
0.505217
0.506963
0.508682
0.510375
0.512045
0.51369
0.515313
0.516914
0.518496
0.52006
0.52161
0.523149
0.524681
0.526208
0.527733
0.529258
0.530784
0.532312
0.533841
0.535373
0.536908
0.538443
0.53998
0.541525
0.543078
0.544642
0.54622
0.547813
0.549427
0.551066
0.552738
0.554451
0.556216
0.55805
0.559973
0.562014
0.564215
0.566632
0.569348
0.572481
0.576199
0.580752
0.586513
0.594102
0.604735
0.621113
0.648527
0.675945
0.728346
0.787064
0.799761
0.799998
0.799978
0.798799
0.798068
0.798641
0.792768
0.798683
0.799945
0.799999
0.8
0.8
0.8
0.8
0.8
0.8
0.8
0.799999
0.799999
0.775755
0.62916
0.623824
0.618583
0.612341
0.606076
0.599861
0.594031
0.589215
0.58699
0.253828
0.25645
0.260078
0.264586
0.269836
0.275687
0.282011
0.288686
0.295605
0.302673
0.309806
0.316935
0.323999
0.33095
0.337751
0.34437
0.350785
0.356978
0.362937
0.368649
0.374108
0.379306
0.384238
0.388903
0.3933
0.397435
0.401322
0.404982
0.408443
0.411739
0.414897
0.41794
0.420881
0.423724
0.426469
0.429112
0.431652
0.434092
0.436439
0.438704
0.440903
0.44305
0.44516
0.447246
0.449318
0.451387
0.453464
0.455557
0.457675
0.459824
0.46201
0.464232
0.466491
0.46878
0.471095
0.473429
0.475772
0.478117
0.480455
0.482776
0.485073
0.487336
0.489557
0.491751
0.493891
0.495967
0.497973
0.499906
0.501774
0.503594
0.505374
0.507122
0.508842
0.510537
0.512208
0.513854
0.515476
0.517073
0.518647
0.5202
0.521734
0.523254
0.524765
0.526269
0.527772
0.529278
0.530787
0.532303
0.533825
0.535353
0.536888
0.538431
0.53998
0.541532
0.543095
0.544673
0.546267
0.54788
0.549517
0.551181
0.55288
0.554622
0.556419
0.558284
0.560238
0.562307
0.564529
0.566955
0.569657
0.572732
0.576319
0.580612
0.585887
0.592563
0.601365
0.613816
0.633385
0.666217
0.687501
0.765486
0.799631
0.799998
0.8
0.8
0.799991
0.799975
0.79997
0.799801
0.799953
0.799998
0.8
0.8
0.8
0.8
0.8
0.8
0.8
0.8
0.8
0.799057
0.707873
0.629322
0.624016
0.618886
0.612814
0.606628
0.600448
0.594664
0.589828
0.587547
0.263123
0.265641
0.269115
0.273433
0.278467
0.284093
0.29019
0.296645
0.303354
0.310225
0.317175
0.324135
0.331045
0.337859
0.344538
0.351053
0.35738
0.363502
0.369404
0.375073
0.380499
0.385669
0.390573
0.395201
0.399543
0.403597
0.40737
0.410883
0.414173
0.417286
0.420267
0.423146
0.42594
0.42865
0.431267
0.43378
0.436179
0.438463
0.440638
0.442719
0.444726
0.446678
0.448595
0.450491
0.45238
0.454273
0.456181
0.458118
0.460095
0.462122
0.464204
0.466343
0.468538
0.470784
0.473072
0.475393
0.477737
0.480093
0.482451
0.484799
0.487128
0.489426
0.491714
0.493959
0.496145
0.498255
0.500277
0.502207
0.504048
0.505833
0.507578
0.509292
0.510981
0.512649
0.514295
0.515917
0.517512
0.519081
0.520623
0.52214
0.523637
0.525118
0.52659
0.528058
0.529529
0.531007
0.532496
0.533996
0.535508
0.537033
0.53857
0.540118
0.541679
0.543244
0.544826
0.546429
0.548055
0.549708
0.551393
0.553116
0.554885
0.556711
0.558608
0.560594
0.562695
0.564943
0.567386
0.570082
0.573116
0.576597
0.580678
0.585564
0.59155
0.59909
0.609031
0.623292
0.646402
0.686309
0.698025
0.78741
0.799761
0.799997
0.8
0.8
0.8
0.8
0.8
0.799997
0.799999
0.8
0.8
0.8
0.8
0.8
0.8
0.8
0.8
0.8
0.79995
0.794003
0.685523
0.629563
0.62424
0.619145
0.613191
0.607104
0.600985
0.595209
0.590373
0.588085
0.27185
0.274285
0.27765
0.281839
0.286736
0.292223
0.298184
0.304508
0.311093
0.317845
0.324683
0.331537
0.338351
0.345078
0.351684
0.358141
0.364427
0.370526
0.376425
0.38211
0.387567
0.39278
0.39773
0.402395
0.406868
0.411021
0.414699
0.418042
0.421106
0.423966
0.4267
0.429359
0.431968
0.434523
0.437002
0.439372
0.441611
0.443708
0.445669
0.447513
0.449268
0.450965
0.452629
0.45428
0.455931
0.457594
0.459282
0.461014
0.462805
0.464669
0.466617
0.46865
0.470766
0.472958
0.475214
0.477522
0.47987
0.482244
0.484632
0.487021
0.489399
0.491778
0.494149
0.496483
0.498757
0.500945
0.503015
0.504948
0.506751
0.508487
0.51018
0.511846
0.513496
0.515131
0.516748
0.518341
0.519906
0.521439
0.522941
0.524413
0.525859
0.527286
0.528702
0.530118
0.531542
0.532981
0.534438
0.535915
0.537412
0.538929
0.540465
0.542018
0.543589
0.545179
0.54678
0.548409
0.550071
0.551769
0.553511
0.555305
0.55716
0.55909
0.561113
0.563253
0.565539
0.568011
0.57072
0.573735
0.577143
0.581061
0.585643
0.591099
0.59773
0.606024
0.616957
0.63291
0.659489
0.7061
0.76192
0.796915
0.799957
0.8
0.8
0.8
0.8
0.8
0.8
0.8
0.8
0.8
0.8
0.8
0.8
0.8
0.8
0.8
0.8
0.799999
0.799902
0.793421
0.665639
0.629635
0.624379
0.619339
0.613501
0.607511
0.601462
0.595725
0.590904
0.588616
0.279982
0.282361
0.285667
0.289798
0.294643
0.300085
0.306008
0.312299
0.318851
0.325568
0.332369
0.339185
0.345963
0.35266
0.359246
0.365699
0.372002
0.378143
0.384111
0.389896
0.395484
0.400854
0.406168
0.411616
0.416936
0.421929
0.426256
0.429326
0.431939
0.434247
0.436431
0.438606
0.440822
0.443073
0.445304
0.447436
0.449402
0.451173
0.452751
0.454166
0.455465
0.456707
0.457937
0.459177
0.46044
0.461735
0.463078
0.464489
0.465994
0.467615
0.469362
0.47124
0.473243
0.475358
0.47757
0.479861
0.482214
0.484613
0.487043
0.489489
0.491937
0.494434
0.49694
0.499437
0.501897
0.504271
0.506482
0.508455
0.510203
0.51186
0.513469
0.515061
0.516651
0.518242
0.519823
0.521382
0.522908
0.524395
0.525841
0.527246
0.528615
0.529958
0.531287
0.532618
0.533965
0.535339
0.536744
0.538183
0.539654
0.541154
0.542682
0.544236
0.545815
0.54742
0.549039
0.550699
0.552404
0.554161
0.555977
0.557863
0.559831
0.561899
0.564089
0.566426
0.568946
0.571691
0.574713
0.578083
0.581886
0.586237
0.591287
0.597239
0.604401
0.613292
0.625047
0.64255
0.672207
0.72206
0.782602
0.798587
0.79998
0.8
0.8
0.8
0.8
0.8
0.8
0.8
0.8
0.8
0.8
0.8
0.8
0.8
0.8
0.8
0.8
0.799998
0.799899
0.795831
0.636251
0.629268
0.624384
0.619477
0.613774
0.607883
0.60191
0.596224
0.591433
0.58915
0.287512
0.289868
0.293169
0.297318
0.302203
0.307705
0.3137
0.320066
0.326686
0.333461
0.340305
0.347154
0.353959
0.360686
0.367313
0.373827
0.380219
0.386488
0.39263
0.398644
0.404522
0.410581
0.417156
0.424049
0.431321
0.438488
0.445016
0.448337
0.450168
0.451342
0.452375
0.453545
0.454998
0.456734
0.458627
0.460463
0.462041
0.463282
0.464178
0.464777
0.465176
0.46552
0.465904
0.466367
0.466911
0.467535
0.468251
0.469087
0.470085
0.471278
0.472683
0.4743
0.476114
0.478103
0.480239
0.482496
0.484849
0.487276
0.489759
0.492282
0.494861
0.497527
0.500258
0.503053
0.505894
0.508712
0.511313
0.513412
0.515071
0.516577
0.518025
0.519477
0.520964
0.522488
0.524024
0.52554
0.527014
0.528436
0.529799
0.531101
0.532345
0.533543
0.534716
0.535894
0.537103
0.538359
0.539671
0.541039
0.542459
0.543925
0.545431
0.546976
0.548556
0.550175
0.551831
0.553518
0.55527
0.557095
0.559003
0.561006
0.56312
0.565365
0.567764
0.570346
0.573147
0.576206
0.579571
0.583304
0.587486
0.592221
0.597653
0.603985
0.611527
0.620848
0.633279
0.652262
0.684685
0.734816
0.79265
0.799732
0.799996
0.8
0.8
0.8
0.8
0.8
0.8
0.8
0.8
0.8
0.8
0.8
0.8
0.8
0.8
0.8
0.8
0.799996
0.799739
0.787887
0.63545
0.629182
0.624478
0.619653
0.614061
0.608258
0.602355
0.59672
0.591964
0.589688
0.29446
0.296835
0.300193
0.304435
0.30944
0.315078
0.321313
0.327896
0.334702
0.341633
0.348605
0.35556
0.362459
0.369281
0.376019
0.382672
0.38925
0.395765
0.402237
0.408684
0.415363
0.423242
0.432231
0.442333
0.453775
0.464618
0.47587
0.479729
0.480273
0.479058
0.477744
0.476945
0.47704
0.4781
0.48006
0.483073
0.484299
0.484778
0.484492
0.483505
0.482025
0.480483
0.479148
0.478083
0.47725
0.476597
0.476114
0.475844
0.475868
0.476251
0.477017
0.478155
0.479629
0.481389
0.483385
0.48557
0.487904
0.490356
0.492901
0.495525
0.49829
0.501201
0.504286
0.50759
0.511157
0.514939
0.518509
0.520844
0.522344
0.523532
0.524651
0.525826
0.52713
0.528565
0.53007
0.531557
0.53298
0.534322
0.535572
0.53672
0.537761
0.538707
0.539593
0.540486
0.541434
0.542471
0.54361
0.544848
0.546173
0.547572
0.549033
0.550549
0.552118
0.55374
0.555421
0.557133
0.558936
0.560843
0.562864
0.565013
0.567305
0.569763
0.572411
0.575277
0.578391
0.581784
0.58549
0.589556
0.594049
0.599069
0.604757
0.611317
0.619076
0.628681
0.641715
0.662274
0.697442
0.744746
0.796904
0.799973
0.8
0.8
0.8
0.8
0.8
0.8
0.8
0.8
0.8
0.8
0.8
0.8
0.8
0.8
0.8
0.8
0.8
0.799993
0.799173
0.742241
0.6356
0.629377
0.624707
0.619911
0.614398
0.608666
0.602821
0.597229
0.592502
0.590229
0.300859
0.303316
0.306822
0.311271
0.316529
0.322445
0.328923
0.335758
0.342761
0.350121
0.357439
0.364578
0.37164
0.378628
0.385558
0.392453
0.399348
0.40629
0.413334
0.420549
0.429658
0.440978
0.454888
0.46938
0.485873
0.497697
0.511795
0.514424
0.514129
0.509885
0.505952
0.503061
0.501918
0.502905
0.507648
0.514542
0.517414
0.51758
0.516177
0.513104
0.508535
0.503815
0.499717
0.496321
0.493407
0.490761
0.488299
0.486102
0.484373
0.483286
0.482905
0.483197
0.484078
0.485444
0.487195
0.489248
0.491533
0.494
0.496618
0.49937
0.502355
0.505595
0.509175
0.513224
0.517944
0.523401
0.528815
0.531191
0.532395
0.532927
0.533443
0.534142
0.53518
0.536578
0.538479
0.540212
0.541634
0.542918
0.544053
0.545013
0.545769
0.546305
0.546674
0.547047
0.547522
0.548169
0.549009
0.550029
0.551198
0.552486
0.553868
0.555328
0.556859
0.558464
0.560153
0.561936
0.563779
0.565764
0.5679
0.570202
0.572687
0.575375
0.578291
0.581458
0.584894
0.588612
0.592618
0.596939
0.601632
0.606794
0.612577
0.619205
0.627041
0.636832
0.6505
0.673008
0.711585
0.75208
0.798078
0.79998
0.8
0.8
0.8
0.8
0.8
0.8
0.8
0.8
0.8
0.8
0.8
0.8
0.8
0.8
0.8
0.8
0.799998
0.799791
0.790005
0.69923
0.635884
0.629688
0.625034
0.620258
0.614807
0.609128
0.603326
0.59776
0.593047
0.590775
0.306729
0.309338
0.313097
0.317893
0.323569
0.329939
0.336836
0.344054
0.351384
0.358918
0.366443
0.374363
0.381743
0.388989
0.396217
0.403496
0.410908
0.418553
0.426561
0.436276
0.449332
0.467271
0.487794
0.503317
0.521024
0.526697
0.531295
0.553812
0.559988
0.522313
0.519954
0.517954
0.517447
0.519638
0.528144
0.539609
0.543057
0.545152
0.544715
0.541898
0.535452
0.528297
0.522365
0.517603
0.51337
0.50913
0.504644
0.500038
0.495845
0.492588
0.490493
0.489532
0.489548
0.490347
0.491753
0.493619
0.495833
0.498316
0.501019
0.503931
0.507166
0.510775
0.514907
0.519815
0.525964
0.533451
0.540675
0.54245
0.543289
0.542793
0.542593
0.542742
0.543564
0.545209
0.548992
0.551404
0.553103
0.554426
0.555547
0.556408
0.556911
0.556929
0.556446
0.555974
0.555685
0.555724
0.556128
0.556851
0.557819
0.558967
0.560245
0.561621
0.563083
0.564638
0.566307
0.568111
0.570015
0.572073
0.574332
0.576798
0.579483
0.582404
0.58558
0.589032
0.592767
0.596775
0.60101
0.605476
0.610223
0.615353
0.621071
0.627639
0.635464
0.645418
0.659865
0.685021
0.729175
0.757751
0.798472
0.799984
0.8
0.8
0.8
0.8
0.8
0.8
0.8
0.8
0.8
0.8
0.8
0.8
0.8
0.8
0.799999
0.799983
0.799598
0.794216
0.761521
0.670514
0.636019
0.630006
0.625426
0.620697
0.615306
0.609668
0.603888
0.598325
0.593604
0.591323
0.312097
0.314938
0.319078
0.324401
0.330718
0.337776
0.345308
0.353066
0.36085
0.368689
0.376514
0.384498
0.392675
0.400719
0.408425
0.416307
0.424542
0.433338
0.442985
0.45804
0.47775
0.503949
0.526933
0.535726
0.542541
0.659291
0.783301
0.793685
0.781227
0.761188
0.575721
0.530018
0.529091
0.532761
0.547498
0.554738
0.596499
0.708503
0.713923
0.59592
0.545546
0.540351
0.536507
0.533573
0.53064
0.526947
0.521962
0.515612
0.508872
0.50314
0.499058
0.496655
0.495691
0.495868
0.496914
0.498606
0.500776
0.503305
0.506123
0.509221
0.512686
0.516603
0.521177
0.526801
0.534309
0.543066
0.548723
0.561949
0.571537
0.550608
0.550097
0.549842
0.550645
0.553693
0.561832
0.566283
0.568104
0.569588
0.571594
0.572586
0.573057
0.572516
0.570295
0.568246
0.566588
0.565611
0.565375
0.565719
0.566461
0.567461
0.568624
0.569892
0.571237
0.572677
0.574275
0.576069
0.578074
0.580197
0.582544
0.58511
0.587904
0.590947
0.594268
0.597901
0.601875
0.606168
0.610579
0.615092
0.619756
0.62468
0.630218
0.636695
0.644537
0.654736
0.670186
0.698498
0.749016
0.796313
0.799931
0.799999
0.8
0.8
0.8
0.8
0.8
0.8
0.8
0.8
0.8
0.8
0.8
0.8
0.8
0.8
0.799999
0.799962
0.798907
0.788343
0.739737
0.642164
0.635738
0.630297
0.625894
0.621251
0.615921
0.61031
0.604502
0.598933
0.594189
0.591881
0.316995
0.320161
0.324846
0.330949
0.338234
0.346313
0.354756
0.363247
0.371617
0.379886
0.388069
0.396265
0.404626
0.413676
0.422787
0.431657
0.441239
0.45202
0.467621
0.493297
0.517444
0.544887
0.553365
0.637643
0.779418
0.797329
0.799781
0.799933
0.799816
0.799565
0.792164
0.599974
0.545474
0.550401
0.56897
0.726702
0.798581
0.799384
0.798994
0.790285
0.585154
0.547926
0.546331
0.54576
0.544942
0.543004
0.538919
0.531523
0.521752
0.513338
0.507343
0.50365
0.501857
0.501548
0.502361
0.504002
0.50624
0.508902
0.511883
0.515172
0.518784
0.522825
0.527532
0.533486
0.542085
0.551192
0.62196
0.792428
0.795151
0.779457
0.608232
0.558636
0.558557
0.562537
0.571696
0.640528
0.784749
0.766018
0.796728
0.799289
0.784096
0.628672
0.577646
0.576161
0.574618
0.573631
0.573542
0.574083
0.575008
0.576151
0.577406
0.578697
0.579983
0.581294
0.582805
0.584584
0.586632
0.588886
0.591306
0.593938
0.596793
0.59991
0.603347
0.60719
0.611556
0.616504
0.621202
0.625778
0.630289
0.634818
0.640206
0.646799
0.654945
0.665776
0.682922
0.714725
0.766205
0.798782
0.799984
0.8
0.8
0.8
0.8
0.8
0.8
0.8
0.8
0.8
0.8
0.8
0.8
0.8
0.8
0.8
0.799999
0.799979
0.798855
0.790527
0.74554
0.64186
0.635926
0.630808
0.626539
0.621982
0.61662
0.611042
0.605238
0.599634
0.594826
0.592451
0.32146
0.325051
0.330496
0.337764
0.346542
0.356174
0.365904
0.375363
0.384457
0.393254
0.401857
0.410414
0.419167
0.428518
0.439364
0.450711
0.462772
0.477549
0.5114
0.549371
0.566516
0.576634
0.76169
0.795534
0.799619
0.799967
0.799998
0.799999
0.799999
0.799997
0.799899
0.770504
0.658162
0.575224
0.622557
0.779665
0.799716
0.799996
0.799994
0.799913
0.785835
0.574926
0.638827
0.684566
0.667693
0.604507
0.567023
0.535252
0.526608
0.519116
0.513225
0.509301
0.507278
0.506876
0.507762
0.509614
0.512147
0.515117
0.518327
0.521779
0.52541
0.529292
0.533634
0.539262
0.547924
0.682486
0.795544
0.799911
0.799967
0.799707
0.792002
0.59298
0.564284
0.572795
0.582884
0.664075
0.796096
0.799583
0.799967
0.79999
0.799895
0.798088
0.795084
0.640369
0.580209
0.579522
0.580181
0.581334
0.582722
0.584214
0.585723
0.587163
0.588438
0.589538
0.590963
0.592773
0.594905
0.597299
0.599848
0.602614
0.605612
0.608907
0.612595
0.616869
0.62211
0.628876
0.633805
0.638408
0.642697
0.647393
0.653225
0.660389
0.669677
0.6837
0.709264
0.751342
0.788634
0.799767
0.799997
0.8
0.8
0.8
0.8
0.8
0.8
0.8
0.8
0.8
0.8
0.8
0.8
0.8
0.8
0.8
0.799999
0.799984
0.799796
0.798715
0.792442
0.642454
0.636563
0.6316
0.62737
0.622813
0.61753
0.611971
0.606138
0.600452
0.595529
0.593035
0.325528
0.329634
0.336117
0.345163
0.356381
0.368543
0.380138
0.390864
0.400803
0.410182
0.419264
0.428318
0.437675
0.447755
0.459254
0.474498
0.492932
0.518543
0.580954
0.598372
0.72157
0.786011
0.79895
0.79993
0.799995
0.8
0.8
0.8
0.8
0.8
0.799998
0.799478
0.748858
0.591477
0.676413
0.791267
0.799876
0.799999
0.8
0.799999
0.667985
0.604145
0.738489
0.795665
0.791668
0.656027
0.591498
0.538218
0.529584
0.522742
0.517286
0.513605
0.5118
0.511714
0.513075
0.515549
0.518781
0.522722
0.526299
0.529851
0.533292
0.536723
0.540393
0.545087
0.552679
0.725705
0.797638
0.799966
0.799999
0.799996
0.799812
0.613405
0.588637
0.65041