/*--------------------------------*- C++ -*----------------------------------*\
| =========                 |                                                 |
| \\      /  F ield         | OpenFOAM: The Open Source CFD Toolbox           |
|  \\    /   O peration     | Version:  2.1.0                                 |
|   \\  /    A nd           | Web:      www.OpenFOAM.org                      |
|    \\/     M anipulation  |                                                 |
\*---------------------------------------------------------------------------*/
FoamFile
{
    version     2.0;
    format      ascii;
    class       volScalarField;
    location    "48180";
    object      sw;
}
// * * * * * * * * * * * * * * * * * * * * * * * * * * * * * * * * * * * * * //

dimensions      [0 0 0 0 0 0 0];

internalField   nonuniform List<scalar> 
15000
(
0.8
0.799999
0.799996
0.799966
0.799534
0.797431
0.792285
0.784122
0.774052
0.763181
0.752206
0.741487
0.731188
0.721374
0.712062
0.703245
0.694906
0.687022
0.679569
0.672521
0.665853
0.659538
0.653554
0.647875
0.64248
0.637346
0.632454
0.627783
0.623317
0.619038
0.61493
0.610979
0.60717
0.603492
0.599932
0.596478
0.593121
0.589851
0.586659
0.58354
0.580485
0.57749
0.57455
0.571659
0.568813
0.56601
0.563247
0.56052
0.557829
0.555171
0.552547
0.549955
0.547396
0.54487
0.542377
0.539919
0.537495
0.535108
0.532758
0.530445
0.528171
0.525936
0.523739
0.521581
0.519462
0.51738
0.515334
0.513325
0.51135
0.509408
0.507497
0.505617
0.503766
0.501943
0.500145
0.498373
0.496625
0.4949
0.493196
0.491513
0.489849
0.488204
0.486578
0.484971
0.48338
0.481808
0.480252
0.478714
0.477193
0.475691
0.474206
0.47274
0.471292
0.469864
0.468457
0.46707
0.465706
0.464364
0.463047
0.461755
0.46049
0.459252
0.458043
0.456864
0.455715
0.454599
0.453516
0.452467
0.451453
0.450474
0.449529
0.448619
0.447742
0.446898
0.446086
0.445303
0.44455
0.443824
0.443123
0.442445
0.441784
0.441131
0.440473
0.439793
0.439072
0.438289
0.437434
0.43653
0.435662
0.434946
0.434403
0.434011
0.433733
0.433455
0.433174
0.432887
0.43259
0.432281
0.431958
0.431618
0.431254
0.430859
0.43042
0.429919
0.429331
0.428618
0.427713
0.426487
0.424616
0.420774
0.799999
0.799996
0.799991
0.799906
0.799133
0.796253
0.790251
0.781553
0.771303
0.760471
0.749632
0.739081
0.72895
0.71929
0.710116
0.70142
0.693186
0.685395
0.678022
0.671044
0.664438
0.658178
0.652242
0.646607
0.641252
0.636156
0.631298
0.62666
0.622223
0.617972
0.613891
0.609965
0.60618
0.602524
0.598985
0.595552
0.592215
0.588963
0.585791
0.582689
0.579652
0.576675
0.573751
0.570877
0.568048
0.56526
0.562511
0.559798
0.55712
0.554475
0.551862
0.54928
0.546731
0.544213
0.541727
0.539275
0.536857
0.534474
0.532128
0.529819
0.527548
0.525315
0.523121
0.520965
0.518848
0.516768
0.514724
0.512717
0.510744
0.508804
0.506895
0.505017
0.503168
0.501346
0.499551
0.497781
0.496035
0.494311
0.492609
0.490927
0.489265
0.487621
0.485996
0.484389
0.482799
0.481227
0.479671
0.478131
0.476609
0.475104
0.473616
0.472146
0.470693
0.469259
0.467844
0.466448
0.465073
0.46372
0.462389
0.46108
0.459796
0.458536
0.457302
0.456093
0.454911
0.453756
0.452628
0.451527
0.450452
0.449403
0.448376
0.447371
0.446384
0.445414
0.444456
0.443508
0.442569
0.441639
0.440716
0.439798
0.438875
0.437924
0.436908
0.435773
0.434446
0.432843
0.430899
0.428658
0.426461
0.424864
0.423834
0.423241
0.422966
0.422806
0.422755
0.42279
0.422864
0.422958
0.423085
0.423269
0.42352
0.423824
0.424148
0.424448
0.424673
0.424765
0.424651
0.424196
0.423081
0.419982
0.799996
0.799992
0.79996
0.799637
0.798063
0.793924
0.786862
0.777655
0.767339
0.75667
0.746081
0.735792
0.725907
0.716467
0.707485
0.698956
0.690867
0.683201
0.675937
0.669056
0.662534
0.656351
0.650483
0.644911
0.639614
0.634571
0.629763
0.625172
0.620781
0.616572
0.61253
0.608642
0.604894
0.601273
0.597768
0.594367
0.591061
0.58784
0.584697
0.581624
0.578616
0.575666
0.572769
0.569921
0.567117
0.564353
0.561626
0.558934
0.556275
0.553648
0.551051
0.548484
0.545946
0.543439
0.540963
0.538519
0.536108
0.533731
0.531389
0.529084
0.526817
0.524587
0.522395
0.520242
0.518128
0.51605
0.51401
0.512006
0.510036
0.508099
0.506194
0.50432
0.502475
0.500657
0.498865
0.497099
0.495356
0.493636
0.491936
0.490258
0.488598
0.486958
0.485335
0.48373
0.482141
0.480569
0.479012
0.477472
0.475947
0.474439
0.472948
0.471473
0.470014
0.468572
0.467147
0.465741
0.464352
0.462984
0.461635
0.460306
0.458998
0.45771
0.456444
0.455199
0.453975
0.452771
0.451586
0.450418
0.449266
0.448126
0.446993
0.445862
0.444727
0.443582
0.442417
0.441226
0.440002
0.438742
0.437448
0.436126
0.434767
0.433332
0.431744
0.429884
0.427588
0.424647
0.420861
0.416211
0.41164
0.409042
0.407599
0.406869
0.406614
0.4067
0.407131
0.407861
0.408679
0.40952
0.410441
0.411535
0.412847
0.414332
0.415908
0.41747
0.418918
0.420163
0.421113
0.421637
0.421417
0.419141
0.799968
0.799912
0.799649
0.798574
0.795593
0.789969
0.781984
0.772491
0.762291
0.751918
0.741676
0.731725
0.722147
0.712978
0.704231
0.695904
0.687991
0.680477
0.673347
0.666582
0.660165
0.654076
0.648295
0.642802
0.637577
0.632603
0.62786
0.623331
0.618997
0.614844
0.610856
0.607018
0.603319
0.599745
0.596285
0.592927
0.589663
0.586484
0.583381
0.580348
0.577379
0.574467
0.571607
0.568793
0.566023
0.56329
0.560593
0.557929
0.555296
0.552691
0.550115
0.547566
0.545044
0.542551
0.540086
0.537651
0.535247
0.532877
0.530541
0.52824
0.525976
0.52375
0.521561
0.519412
0.5173
0.515227
0.513191
0.511191
0.509226
0.507294
0.505394
0.503525
0.501685
0.499873
0.498086
0.496325
0.494588
0.492873
0.491179
0.489505
0.48785
0.486213
0.484594
0.482991
0.481404
0.479833
0.478277
0.476735
0.475209
0.473698
0.472202
0.470721
0.469255
0.467804
0.466368
0.464949
0.463545
0.462158
0.460788
0.459435
0.458099
0.456779
0.455475
0.454186
0.452911
0.451648
0.450394
0.449147
0.4479
0.446648
0.445383
0.444094
0.442768
0.44139
0.439938
0.438389
0.436717
0.434903
0.432957
0.43095
0.428907
0.426773
0.424414
0.421624
0.418115
0.413506
0.407375
0.399346
0.391632
0.389148
0.38789
0.38726
0.387039
0.387379
0.388398
0.390155
0.391938
0.393596
0.395336
0.397424
0.400003
0.402959
0.406126
0.409308
0.412315
0.414996
0.417235
0.418896
0.419674
0.418267
0.799575
0.799196
0.798154
0.795685
0.791068
0.784237
0.775736
0.766259
0.756357
0.746387
0.736561
0.726999
0.717767
0.708901
0.700417
0.692318
0.684601
0.67726
0.67028
0.66365
0.657353
0.651372
0.645691
0.64029
0.635153
0.630261
0.625595
0.62114
0.616878
0.612792
0.608869
0.605095
0.601455
0.597939
0.594535
0.591232
0.588021
0.584893
0.581842
0.578859
0.575939
0.573075
0.570262
0.567493
0.564765
0.562073
0.559414
0.556784
0.554183
0.551607
0.549055
0.546528
0.544026
0.541548
0.539096
0.536672
0.534277
0.531913
0.529582
0.527286
0.525025
0.522802
0.520617
0.518471
0.516364
0.514295
0.512264
0.510269
0.50831
0.506385
0.504492
0.50263
0.500797
0.498992
0.497213
0.495459
0.493728
0.49202
0.490333
0.488665
0.487016
0.485385
0.48377
0.482172
0.480588
0.479018
0.477463
0.475921
0.474393
0.472878
0.471377
0.46989
0.468416
0.466955
0.465507
0.464072
0.462651
0.461244
0.45985
0.458468
0.457099
0.455742
0.454394
0.453055
0.451722
0.450391
0.449058
0.447717
0.446359
0.444976
0.443551
0.442069
0.440502
0.438817
0.436966
0.434885
0.432495
0.429715
0.426587
0.423472
0.420493
0.417545
0.414401
0.410747
0.406169
0.400128
0.391975
0.380491
0.371108
0.37078
0.369914
0.369504
0.369267
0.369558
0.370743
0.373607
0.376186
0.378163
0.38015
0.382747
0.386358
0.390711
0.39552
0.400494
0.405265
0.409564
0.413223
0.416105
0.417919
0.417384
0.79766
0.796532
0.79425
0.790292
0.784455
0.777
0.768428
0.759223
0.749748
0.740247
0.730874
0.721724
0.712858
0.704312
0.696105
0.688247
0.680741
0.673583
0.666767
0.660281
0.654115
0.648254
0.642682
0.637385
0.632345
0.627546
0.622971
0.618601
0.614422
0.610416
0.606569
0.602869
0.5993
0.595852
0.592514
0.589275
0.586128
0.583063
0.580074
0.577153
0.574293
0.571488
0.568731
0.566017
0.563341
0.560699
0.558085
0.555498
0.552935
0.550393
0.547872
0.545371
0.54289
0.540431
0.537994
0.535581
0.533195
0.530838
0.528513
0.52622
0.523963
0.521743
0.519561
0.517418
0.515315
0.513251
0.511225
0.509238
0.507286
0.505369
0.503485
0.501631
0.499807
0.498011
0.496241
0.494496
0.492774
0.491075
0.489396
0.487736
0.486095
0.484471
0.482862
0.481269
0.479689
0.478123
0.476568
0.475027
0.473497
0.471979
0.470472
0.468979
0.467496
0.466023
0.464562
0.463111
0.46167
0.460239
0.458818
0.457406
0.456001
0.454601
0.453205
0.45181
0.450411
0.449004
0.447581
0.446134
0.44465
0.443114
0.441502
0.439785
0.437916
0.435831
0.43343
0.430567
0.427032
0.422562
0.417263
0.412596
0.408653
0.405093
0.401506
0.397462
0.392477
0.385966
0.37725
0.363891
0.359274
0.350119
0.341177
0.328705
0.318215
0.321749
0.337327
0.366659
0.368501
0.369269
0.370107
0.371743
0.375183
0.37996
0.385616
0.392065
0.3985
0.404364
0.409395
0.413444
0.41624
0.416517
0.792948
0.790965
0.787601
0.782678
0.776289
0.768744
0.760418
0.751639
0.742658
0.733649
0.724736
0.716001
0.707502
0.699277
0.691351
0.683738
0.676446
0.669477
0.662828
0.656493
0.650464
0.644728
0.639274
0.634088
0.629155
0.624458
0.619982
0.615709
0.611623
0.607708
0.603949
0.600332
0.596844
0.593474
0.590212
0.587048
0.583974
0.580983
0.578067
0.575219
0.57243
0.569696
0.567007
0.56436
0.561746
0.559163
0.556605
0.554068
0.55155
0.549049
0.546564
0.544093
0.541638
0.539199
0.536778
0.534378
0.532002
0.529651
0.52733
0.525041
0.522786
0.520567
0.518387
0.516247
0.514148
0.512089
0.51007
0.50809
0.506147
0.50424
0.502365
0.500523
0.498709
0.496924
0.495165
0.493431
0.49172
0.490031
0.488363
0.486713
0.485082
0.483466
0.481866
0.480279
0.478705
0.477143
0.475591
0.47405
0.472519
0.470997
0.469486
0.467985
0.466493
0.465009
0.463532
0.462063
0.460601
0.459145
0.457695
0.456248
0.454803
0.453358
0.451909
0.450452
0.448981
0.447489
0.445967
0.444401
0.442775
0.441063
0.439233
0.437234
0.434992
0.432391
0.429253
0.425291
0.420023
0.412706
0.403468
0.397273
0.392903
0.389371
0.386025
0.382375
0.37797
0.37235
0.365033
0.351909
0.321306
0.203033
0.200099
0.200001
0.20275
0.252707
0.254617
0.261482
0.278401
0.292472
0.31551
0.339298
0.369743
0.373507
0.378176
0.385389
0.39302
0.400044
0.406124
0.411109
0.414724
0.415694
0.785425
0.782869
0.778937
0.773664
0.767238
0.759929
0.752012
0.743722
0.735245
0.72672
0.718251
0.709915
0.70177
0.693855
0.686202
0.678828
0.671748
0.664965
0.658483
0.652298
0.646406
0.640798
0.635464
0.630393
0.625572
0.620985
0.616617
0.61245
0.608468
0.604654
0.600992
0.597469
0.594072
0.590789
0.587612
0.584533
0.581544
0.578638
0.575807
0.573043
0.570339
0.567687
0.56508
0.56251
0.559971
0.557458
0.554965
0.552489
0.550025
0.547572
0.545128
0.542693
0.540266
0.53785
0.535448
0.533061
0.530694
0.528349
0.526031
0.523743
0.521488
0.51927
0.517091
0.514952
0.512856
0.510802
0.50879
0.506818
0.504886
0.50299
0.501128
0.499298
0.497497
0.495725
0.493979
0.492258
0.490559
0.488883
0.487227
0.48559
0.48397
0.482366
0.480776
0.479198
0.477632
0.476075
0.474527
0.472988
0.471456
0.469931
0.468414
0.466906
0.465404
0.463907
0.462415
0.460927
0.459442
0.457959
0.456477
0.454993
0.453505
0.45201
0.450504
0.448979
0.44743
0.445846
0.444214
0.442517
0.44073
0.438818
0.436733
0.434398
0.4317
0.428459
0.424388
0.418994
0.411347
0.399666
0.38368
0.377458
0.373809
0.371132
0.36873
0.36619
0.363201
0.359471
0.354663
0.341622
0.296738
0.224059
0.200959
0.200021
0.200013
0.201035
0.201612
0.202591
0.204292
0.205473
0.260257
0.273094
0.331341
0.356591
0.376441
0.383107
0.390187
0.397233
0.403704
0.409238
0.413431
0.414932
0.776109
0.773319
0.769248
0.764018
0.757826
0.750896
0.743437
0.735634
0.727634
0.719558
0.7115
0.703534
0.695717
0.688093
0.680696
0.673549
0.666668
0.660063
0.65374
0.647699
0.64194
0.636456
0.631241
0.626287
0.62158
0.617108
0.612855
0.608803
0.604935
0.601232
0.597677
0.594257
0.590959
0.587772
0.58469
0.581706
0.578812
0.576002
0.573269
0.570603
0.567998
0.565443
0.56293
0.560453
0.558002
0.555572
0.553157
0.550752
0.548353
0.545956
0.543561
0.541166
0.538773
0.536384
0.534
0.531627
0.529268
0.526928
0.524611
0.522322
0.520065
0.517843
0.515662
0.513523
0.511428
0.509379
0.507374
0.505412
0.503492
0.501609
0.499762
0.497946
0.496161
0.494404
0.492673
0.490966
0.489283
0.487621
0.48598
0.484358
0.482753
0.481163
0.479586
0.47802
0.476463
0.474914
0.473371
0.471834
0.470303
0.468776
0.467253
0.465735
0.464223
0.462713
0.461205
0.459696
0.458187
0.456675
0.455159
0.453636
0.452103
0.450554
0.448985
0.447387
0.445752
0.444067
0.442314
0.44047
0.438502
0.436361
0.433977
0.431246
0.428005
0.424005
0.418837
0.41177
0.401276
0.384028
0.359058
0.355223
0.352583
0.350955
0.349901
0.349007
0.348003
0.346811
0.345212
0.329267
0.264641
0.209669
0.200405
0.200009
0.2
0.200015
0.200032
0.200065
0.200112
0.200131
0.203219
0.204375
0.219191
0.350767
0.376065
0.38223
0.388776
0.395541
0.40204
0.407821
0.412368
0.414236
0.766058
0.763248
0.759266
0.754254
0.748393
0.741867
0.734849
0.727489
0.719917
0.712241
0.704548
0.696911
0.689388
0.682026
0.67486
0.667918
0.661219
0.654777
0.648599
0.64269
0.637053
0.631684
0.626582
0.621739
0.617146
0.612791
0.608658
0.604729
0.600985
0.597403
0.593966
0.590659
0.587469
0.584387
0.581409
0.578529
0.575742
0.573041
0.570419
0.567868
0.565376
0.562935
0.560535
0.558166
0.555819
0.553488
0.551166
0.548846
0.546523
0.544194
0.541856
0.539509
0.537154
0.534794
0.532431
0.530072
0.52772
0.525382
0.523063
0.520769
0.518505
0.516277
0.51409
0.511947
0.509851
0.507805
0.505807
0.503856
0.50195
0.500083
0.498253
0.496456
0.494688
0.492948
0.491233
0.489544
0.487878
0.486234
0.48461
0.483006
0.481419
0.479846
0.478286
0.476735
0.47519
0.473652
0.472116
0.470584
0.469053
0.467525
0.465997
0.464471
0.462949
0.461426
0.459899
0.458369
0.456833
0.45529
0.453737
0.452171
0.450586
0.448979
0.447341
0.445664
0.443934
0.442137
0.440249
0.438239
0.436063
0.433657
0.430926
0.427732
0.423868
0.419015
0.412655
0.403822
0.390425
0.368034
0.339405
0.311296
0.288492
0.251888
0.217696
0.206318
0.217434
0.239637
0.299615
0.288711
0.223435
0.200794
0.200023
0.200001
0.2
0.2
0.200001
0.200001
0.200002
0.200003
0.200076
0.200111
0.200954
0.37026
0.376192
0.381768
0.388188
0.394562
0.400922
0.406768
0.411502
0.4136
0.755957
0.753226
0.749417
0.744668
0.739136
0.73298
0.726346
0.719367
0.712158
0.70482
0.697437
0.690081
0.682811
0.675675
0.668711
0.661947
0.655405
0.649102
0.643049
0.637253
0.631719
0.626449
0.621445
0.616702
0.612215
0.607975
0.603966
0.600168
0.596557
0.59311
0.589803
0.58662
0.583548
0.580582
0.577716
0.57495
0.572281
0.569703
0.567209
0.564789
0.562431
0.560124
0.557856
0.555616
0.553394
0.551181
0.548969
0.546751
0.544521
0.542272
0.540004
0.537713
0.535403
0.533075
0.530735
0.528389
0.526043
0.523704
0.521378
0.519074
0.516798
0.514557
0.512358
0.510205
0.508096
0.506037
0.504038
0.502099
0.50021
0.498365
0.496557
0.494783
0.493037
0.491318
0.489625
0.487955
0.48631
0.484687
0.483086
0.481504
0.47994
0.47839
0.476851
0.475319
0.473792
0.472267
0.470742
0.469216
0.467688
0.466159
0.464627
0.463092
0.461557
0.46002
0.458475
0.456922
0.455358
0.45378
0.452187
0.450573
0.448934
0.447262
0.445549
0.443784
0.44195
0.440027
0.437986
0.435785
0.433368
0.430652
0.427519
0.423801
0.419248
0.413487
0.405898
0.395265
0.378887
0.351473
0.324055
0.271654
0.212936
0.200239
0.200002
0.200022
0.201201
0.201932
0.201359
0.207232
0.201317
0.200055
0.200001
0.2
0.2
0.2
0.2
0.2
0.2
0.2
0.200001
0.200001
0.224245
0.37084
0.376176
0.381417
0.387659
0.393924
0.400139
0.405969
0.410785
0.41301
0.746172
0.74355
0.739922
0.735414
0.730164
0.724313
0.717989
0.711314
0.704395
0.697327
0.690194
0.683065
0.676001
0.66905
0.662249
0.65563
0.649215
0.643022
0.637063
0.631351
0.625892
0.620694
0.615762
0.611097
0.6067
0.602565
0.598678
0.595018
0.591557
0.588261
0.585103
0.58206
0.579119
0.576276
0.573531
0.570888
0.568348
0.565908
0.563561
0.561296
0.559097
0.55695
0.55484
0.552754
0.550682
0.548613
0.546536
0.544443
0.542325
0.540176
0.53799
0.535768
0.533509
0.53122
0.528905
0.526571
0.524228
0.521883
0.519545
0.517224
0.514927
0.512664
0.510443
0.508249
0.506109
0.504033
0.502027
0.500094
0.498226
0.496406
0.494626
0.492878
0.491158
0.489463
0.487792
0.486146
0.484524
0.482927
0.481353
0.4798
0.478266
0.476746
0.475235
0.473731
0.472228
0.470722
0.469213
0.467697
0.466175
0.464647
0.463112
0.461569
0.46002
0.458468
0.456905
0.455327
0.453733
0.45212
0.450483
0.448819
0.44712
0.445378
0.443581
0.441716
0.439762
0.437693
0.435471
0.433045
0.430343
0.427268
0.423681
0.419388
0.414113
0.407437
0.398635
0.386184
0.366615
0.333783
0.312499
0.234514
0.200369
0.200002
0.2
0.2
0.200009
0.200025
0.20003
0.200199
0.200047
0.200002
0.2
0.2
0.2
0.2
0.2
0.2
0.2
0.2
0.2
0.200943
0.292127
0.370678
0.375984
0.381114
0.387186
0.393372
0.399552
0.405336
0.410172
0.412453
0.736877
0.734359
0.730885
0.726567
0.721533
0.715907
0.70981
0.703355
0.696646
0.689775
0.682825
0.675865
0.668955
0.662141
0.655462
0.648947
0.64262
0.636498
0.630596
0.624927
0.619501
0.614331
0.609427
0.604799
0.600457
0.596403
0.59263
0.589117
0.585827
0.582714
0.579733
0.576854
0.57406
0.57135
0.568733
0.56622
0.563821
0.561537
0.559362
0.557281
0.555274
0.553322
0.551405
0.549509
0.54762
0.545727
0.543819
0.541882
0.539905
0.537878
0.535796
0.533657
0.531462
0.529216
0.526928
0.524607
0.522263
0.519907
0.517549
0.515201
0.512872
0.510574
0.508286
0.506041
0.503855
0.501745
0.499723
0.497793
0.495952
0.494167
0.492422
0.490708
0.489019
0.487351
0.485705
0.484083
0.482488
0.480919
0.479377
0.47786
0.476363
0.474882
0.47341
0.471942
0.470471
0.468993
0.467504
0.466004
0.464492
0.462967
0.46143
0.459882
0.458321
0.456756
0.455174
0.453571
0.451945
0.450292
0.448607
0.446884
0.445115
0.443289
0.441392
0.439406
0.437305
0.435057
0.432614
0.429918
0.426884
0.423403
0.419322
0.414436
0.40845
0.40091
0.390969
0.376708
0.353598
0.313691
0.301975
0.21259
0.200239
0.200003
0.2
0.2
0.2
0.2
0.2
0.200003
0.200001
0.2
0.2
0.2
0.2
0.2
0.2
0.2
0.2
0.2
0.20005
0.205997
0.314477
0.370437
0.37576
0.380855
0.386809
0.392896
0.399015
0.404791
0.409627
0.411915
0.72815
0.725715
0.72235
0.718161
0.713264
0.707777
0.701816
0.695492
0.688907
0.682155
0.675317
0.668463
0.661649
0.654922
0.648316
0.641859
0.635573
0.629474
0.623575
0.61789
0.612433
0.60722
0.60227
0.597605
0.593132
0.588979
0.585301
0.581958
0.578894
0.576034
0.5733
0.570641
0.568032
0.565477
0.562998
0.560628
0.558389
0.556292
0.554331
0.552487
0.550732
0.549035
0.547371
0.54572
0.544069
0.542406
0.540718
0.538986
0.537195
0.535331
0.533383
0.53135
0.529234
0.527042
0.524786
0.522478
0.52013
0.517756
0.515368
0.512979
0.510601
0.508222
0.505851
0.503517
0.501243
0.499055
0.496985
0.495052
0.493249
0.491513
0.48982
0.488154
0.486504
0.484869
0.483252
0.481659
0.480094
0.478561
0.477059
0.475587
0.474141
0.472714
0.471298
0.469882
0.468458
0.467019
0.465562
0.464085
0.462588
0.461071
0.459535
0.457982
0.456411
0.454821
0.45322
0.451591
0.449929
0.448231
0.446489
0.444695
0.44284
0.44091
0.438887
0.436747
0.434461
0.431989
0.42928
0.426265
0.422857
0.418939
0.414357
0.408901
0.40227
0.393976
0.383043
0.36709
0.340511
0.2939
0.23808
0.203085
0.200043
0.2
0.2
0.2
0.2
0.2
0.2
0.2
0.2
0.2
0.2
0.2
0.2
0.2
0.2
0.2
0.2
0.200001
0.200098
0.206579
0.334361
0.370365
0.375621
0.380661
0.386499
0.392489
0.398538
0.404275
0.409096
0.411384
0.720018
0.717639
0.714333
0.710202
0.705357
0.699915
0.693992
0.687701
0.681149
0.674432
0.667631
0.660815
0.654037
0.64734
0.640754
0.634301
0.627998
0.621857
0.615889
0.610104
0.604516
0.599146
0.593832
0.588384
0.583064
0.578071
0.573744
0.570674
0.568061
0.565753
0.563569
0.561394
0.559178
0.556927
0.554696
0.552564
0.550598
0.548827
0.547249
0.545834
0.544535
0.543293
0.542063
0.540823
0.53956
0.538265
0.536922
0.535511
0.534006
0.532385
0.530638
0.52876
0.526757
0.524642
0.52243
0.520139
0.517786
0.515387
0.512957
0.510511
0.508063
0.505566
0.50306
0.500563
0.498103
0.495729
0.493518
0.491545
0.489797
0.48814
0.486531
0.484939
0.483349
0.481758
0.480177
0.478618
0.477092
0.475605
0.474159
0.472754
0.471385
0.470042
0.468713
0.467382
0.466035
0.464661
0.463256
0.461817
0.460346
0.458846
0.457318
0.455764
0.454185
0.45258
0.450961
0.449301
0.447596
0.445839
0.444023
0.442137
0.440169
0.438101
0.435911
0.433574
0.431054
0.428309
0.425287
0.421917
0.418114
0.413763
0.408713
0.402761
0.395599
0.386708
0.374953
0.35745
0.327793
0.27794
0.217398
0.201413
0.20002
0.2
0.2
0.2
0.2
0.2
0.2
0.2
0.2
0.2
0.2
0.2
0.2
0.2
0.2
0.2
0.2
0.200002
0.200101
0.204169
0.363749
0.370732
0.375616
0.380523
0.386226
0.392117
0.39809
0.403776
0.408567
0.41085
0.712488
0.710132
0.706831
0.702682
0.697797
0.692295
0.6863
0.679934
0.673314
0.666539
0.659695
0.652846
0.646041
0.639314
0.632687
0.626173
0.619781
0.613512
0.60737
0.601356
0.595478
0.589419
0.582844
0.575951
0.568679
0.561512
0.554984
0.551663
0.549832
0.548658
0.547625
0.546455
0.545002
0.543266
0.541373
0.539537
0.537959
0.536718
0.535822
0.535223
0.534824
0.53448
0.534096
0.533633
0.533089
0.532465
0.531749
0.530913
0.529915
0.528722
0.527317
0.5257
0.523886
0.521897
0.519761
0.517504
0.515151
0.512724
0.510241
0.507718
0.505139
0.502473
0.499742
0.496947
0.494106
0.491288
0.488687
0.486588
0.484929
0.483423
0.481975
0.480523
0.479036
0.477512
0.475976
0.47446
0.472986
0.471564
0.470201
0.468899
0.467655
0.466457
0.465284
0.464106
0.462897
0.461641
0.460329
0.458961
0.457541
0.456075
0.454569
0.453024
0.451444
0.449825
0.448169
0.446482
0.44473
0.442905
0.440997
0.438994
0.43688
0.434635
0.432236
0.429654
0.426853
0.423794
0.420429
0.416696
0.412514
0.407779
0.402347
0.396015
0.388473
0.379152
0.366721
0.347738
0.315315
0.265184
0.20735
0.200268
0.200004
0.2
0.2
0.2
0.2
0.2
0.2
0.2
0.2
0.2
0.2
0.2
0.2
0.2
0.2
0.2
0.2
0.200004
0.200261
0.212113
0.36455
0.370818
0.375522
0.380347
0.385939
0.391742
0.397645
0.40328
0.408036
0.410312
0.70554
0.703165
0.699807
0.695565
0.69056
0.684922
0.678687
0.672104
0.665298
0.658367
0.651395
0.64444
0.637541
0.630719
0.623981
0.617328
0.61075
0.604235
0.597763
0.591316
0.584637
0.576758
0.567769
0.557667
0.546225
0.535382
0.52413
0.520271
0.519727
0.520942
0.522256
0.523055
0.52296
0.5219
0.51994
0.516927
0.515701
0.515222
0.515508
0.516495
0.517975
0.519517
0.520852
0.521917
0.52275
0.523403
0.523886
0.524156
0.524132
0.523749
0.522983
0.521845
0.520371
0.518611
0.516615
0.51443
0.512096
0.509644
0.507099
0.504475
0.50171
0.498799
0.495714
0.49241
0.488843
0.485061
0.481491
0.479156
0.477656
0.476468
0.475349
0.474174
0.47287
0.471435
0.46993
0.468443
0.46702
0.465678
0.464428
0.46328
0.462239
0.461293
0.460407
0.459514
0.458566
0.457529
0.45639
0.455152
0.453827
0.452428
0.450967
0.449451
0.447882
0.44626
0.444579
0.442867
0.441064
0.439157
0.437136
0.434987
0.432695
0.430237
0.427589
0.424723
0.421609
0.418216
0.41451
0.410444
0.405951
0.400931
0.395243
0.388683
0.380924
0.371319
0.358285
0.337726
0.302558
0.255254
0.203096
0.200027
0.2
0.2
0.2
0.2
0.2
0.2
0.2
0.2
0.2
0.2
0.2
0.2
0.2
0.2
0.2
0.2
0.2
0.200007
0.200827
0.257759
0.3644
0.370623
0.375293
0.380089
0.385602
0.391334
0.397179
0.402771
0.407498
0.409771
0.699141
0.696684
0.693178
0.688729
0.683471
0.677555
0.671077
0.664242
0.657239
0.649879
0.642561
0.635422
0.62836
0.621372
0.614442
0.607547
0.600652
0.59371
0.586666
0.579451
0.570342
0.559022
0.545112
0.53062
0.514127
0.502303
0.488205
0.485576
0.485871
0.490115
0.494048
0.496939
0.498082
0.497095
0.492352
0.485458
0.482586
0.48242
0.483823
0.486896
0.491465
0.496185
0.500283
0.503679
0.506593
0.509239
0.511701
0.513898
0.515627
0.516714
0.517095
0.516803
0.515922
0.514556
0.512805
0.510752
0.508467
0.506
0.503382
0.50063
0.497645
0.494405
0.490825
0.486776
0.482056
0.476599
0.471185
0.468809
0.467605
0.467073
0.466557
0.465858
0.46482
0.463422
0.461521
0.459788
0.458366
0.457082
0.455947
0.454987
0.454231
0.453695
0.453326
0.452953
0.452478
0.451831
0.450991
0.449971
0.448802
0.447514
0.446132
0.444672
0.443141
0.441536
0.439847
0.438064
0.436221
0.434236
0.4321
0.429798
0.427313
0.424625
0.421709
0.418542
0.415106
0.411388
0.407382
0.403061
0.398368
0.393206
0.387423
0.380795
0.372959
0.363168
0.3495
0.326992
0.288415
0.24792
0.201922
0.20002
0.2
0.2
0.2
0.2
0.2
0.2
0.2
0.2
0.2
0.2
0.2
0.2
0.2
0.2
0.2
0.2
0.200002
0.200209
0.209995
0.30077
0.364116
0.370312
0.374966
0.379742
0.385193
0.390872
0.396674
0.40224
0.406953
0.409225
0.693271
0.690662
0.686903
0.682107
0.676431
0.670061
0.663164
0.655946
0.648616
0.641082
0.633557
0.625637
0.618257
0.611011
0.603783
0.596504
0.589092
0.581447
0.573439
0.563724
0.550668
0.532729
0.512206
0.496683
0.478976
0.473303
0.468705
0.446188
0.440012
0.477687
0.480046
0.482046
0.482553
0.480362
0.471856
0.460391
0.456943
0.454848
0.455285
0.458102
0.464548
0.471703
0.477635
0.482397
0.48663
0.49087
0.495356
0.499962
0.504155
0.507412
0.509507
0.510468
0.510452
0.509653
0.508247
0.506381
0.504167
0.501684
0.498981
0.496069
0.492834
0.489225
0.485093
0.480185
0.474036
0.466549
0.459325
0.45755
0.456711
0.457207
0.457407
0.457258
0.456436
0.454791
0.451008
0.448596
0.446897
0.445574
0.444453
0.443592
0.443089
0.443071
0.443554
0.444026
0.444315
0.444276
0.443872
0.443149
0.442181
0.441033
0.439755
0.438379
0.436917
0.435362
0.433693
0.431889
0.429985
0.427927
0.425668
0.423202
0.420517
0.417596
0.41442
0.410968
0.407233
0.403225
0.39899
0.394524
0.389777
0.384647
0.378929
0.372361
0.364536
0.354582
0.340135
0.314979
0.270825
0.242249
0.201528
0.200016
0.2
0.2
0.2
0.2
0.2
0.2
0.2
0.2
0.2
0.2
0.2
0.2
0.2
0.2
0.200001
0.200017
0.200402
0.205784
0.238479
0.329486
0.363981
0.369994
0.374574
0.379303
0.384694
0.390332
0.396112
0.401675
0.406396
0.408677
0.687903
0.685062
0.680922
0.675599
0.669282
0.662224
0.654692
0.646934
0.63915
0.631311
0.623486
0.615502
0.607325
0.599281
0.591575
0.583693
0.575458
0.566662
0.557015
0.54196
0.52225
0.496051
0.473067
0.464274
0.457459
0.340709
0.216699
0.206315
0.218773
0.238812
0.424279
0.469982
0.470909
0.467239
0.452502
0.445262
0.403501
0.291497
0.286077
0.40408
0.454454
0.459649
0.463493
0.466427
0.46936
0.473053
0.478038
0.484388
0.491128
0.49686
0.500942
0.503345
0.504309
0.504132
0.503086
0.501394
0.499224
0.496695
0.493877
0.490779
0.487314
0.483397
0.478823
0.473199
0.465691
0.456934
0.451277
0.438051
0.428463
0.449392
0.449903
0.450158
0.449355
0.446307
0.438168
0.433717
0.431896
0.430412
0.428406
0.427414
0.426943
0.427484
0.429705
0.431754
0.433412
0.434389
0.434625
0.434281
0.433539
0.432539
0.431376
0.430108
0.428763
0.427323
0.425725
0.423931
0.421926
0.419803
0.417456
0.41489
0.412096
0.409053
0.405732
0.402099
0.398125
0.393832
0.389421
0.384908
0.380244
0.37532
0.369782
0.363305
0.355463
0.345264
0.329814
0.301502
0.250984
0.203687
0.200069
0.200001
0.2
0.2
0.2
0.2
0.2
0.2
0.2
0.2
0.2
0.2
0.2
0.2
0.2
0.2
0.200001
0.200038
0.201093
0.211657
0.260263
0.357836
0.364262
0.369703
0.374106
0.378749
0.384079
0.38969
0.395498
0.401067
0.405811
0.408119
0.683005
0.679839
0.675154
0.669051
0.661766
0.653687
0.645244
0.636753
0.628383
0.620114
0.611931
0.603735
0.595374
0.586324
0.577213
0.568343
0.558761
0.54798
0.532379
0.506703
0.482556
0.455113
0.446635
0.362357
0.220582
0.202671
0.200219
0.200067
0.200184
0.200435
0.207836
0.400026
0.454526
0.449599
0.43103
0.273298
0.201419
0.200616
0.201006
0.209715
0.414846
0.452074
0.453669
0.45424
0.455058
0.456996
0.461081
0.468477
0.478248
0.486662
0.492657
0.49635
0.498143
0.498452
0.497639
0.495998
0.49376
0.491098
0.488117
0.484828
0.481216
0.477175
0.472468
0.466514
0.457915
0.448808
0.37804
0.207572
0.204849
0.220543
0.391768
0.441364
0.441443
0.437463
0.428304
0.359472
0.215251
0.233982
0.203272
0.200711
0.215904
0.371328
0.422354
0.423839
0.425382
0.426369
0.426458
0.425917
0.424992
0.423849
0.422594
0.421303
0.420017
0.418706
0.417195
0.415416
0.413368
0.411114
0.408694
0.406062
0.403207
0.40009
0.396653
0.39281
0.388444
0.383496
0.378798
0.374222
0.369711
0.365182
0.359794
0.353201
0.345055
0.334224
0.317078
0.285275
0.233795
0.201218
0.200016
0.2
0.2
0.2
0.2
0.2
0.2
0.2
0.2
0.2
0.2
0.2
0.2
0.2
0.2
0.2
0.200001
0.200021
0.201145
0.209473
0.25446
0.35814
0.364074
0.369192
0.373461
0.378018
0.38338
0.388958
0.394762
0.400366
0.405174
0.407549
0.67854
0.674949
0.669504
0.662236
0.653458
0.643826
0.634096
0.624637
0.615543
0.606746
0.598143
0.589586
0.580833
0.571482
0.560636
0.549289
0.537228
0.522451
0.4886
0.450629
0.433484
0.423366
0.23831
0.204466
0.200381
0.200033
0.200002
0.200001
0.200001
0.200003
0.200101
0.229496
0.341838
0.424776
0.377443
0.220335
0.200284
0.200004
0.200006
0.200087
0.214165
0.425074
0.361173
0.315434
0.332307
0.395493
0.432977
0.464748
0.473392
0.480884
0.486775
0.490699
0.492722
0.493124
0.492238
0.490386
0.487853
0.484883
0.481673
0.478221
0.47459
0.470708
0.466366
0.460738
0.452076
0.317514
0.204456
0.200089
0.200033
0.200293
0.207998
0.40702
0.435716
0.427205
0.417116
0.335925
0.203904
0.200417
0.200033
0.20001
0.200105
0.201912
0.204916
0.359631
0.419791
0.420478
0.419819
0.418666
0.417278
0.415786
0.414277
0.412837
0.411562
0.410462
0.409037
0.407227
0.405095
0.402701
0.400152
0.397386
0.394388
0.391093
0.387405
0.383131
0.37789
0.371124
0.366195
0.361592
0.357303
0.352607
0.346775
0.339611
0.330323
0.3163
0.290736
0.248658
0.211366
0.200233
0.200003
0.2
0.2
0.2
0.2
0.2
0.2
0.2
0.2
0.2
0.2
0.2
0.2
0.2
0.2
0.2
0.200001
0.200016
0.200204
0.201285
0.207558
0.357546
0.363437
0.3684
0.37263
0.377187
0.38247
0.388029
0.393862
0.399548
0.404471
0.406965
0.674472
0.670366
0.663883
0.654837
0.643619
0.631457
0.619862
0.609136
0.599197
0.589818
0.580736
0.571682
0.562325
0.552245
0.540746
0.525502
0.507068
0.481457
0.419046
0.401628
0.27843
0.213989
0.20105
0.20007
0.200005
0.2
0.2
0.2
0.2
0.2
0.200002
0.200522
0.251142
0.408523
0.323587
0.208733
0.200124
0.200001
0.2
0.200001
0.332015
0.395855
0.261511
0.204335
0.208332
0.343973
0.408502
0.461782
0.470416
0.477258
0.482714
0.486395
0.4882
0.488286
0.486925
0.484451
0.481219
0.477278
0.473701
0.470149
0.466708
0.463277
0.459607
0.454913
0.447321
0.274295
0.202362
0.200034
0.200001
0.200004
0.200188
0.386595
0.411363
0.34959