/*--------------------------------*- C++ -*----------------------------------*\
| =========                 |                                                 |
| \\      /  F ield         | OpenFOAM: The Open Source CFD Toolbox           |
|  \\    /   O peration     | Version:  1.6                                   |
|   \\  /    A nd           | Web:      www.OpenFOAM.org                      |
|    \\/     M anipulation  |                                                 |
\*---------------------------------------------------------------------------*/
FoamFile
{
    version     2.0;
    format      ascii;
    class       volScalarField;
    location    "0.5";
    object      T;
}
// * * * * * * * * * * * * * * * * * * * * * * * * * * * * * * * * * * * * * //

dimensions      [0 0 0 0 0 0 0];

internalField   nonuniform List<scalar> 
40000
(
6.36008e-05
6.3596e-05
6.35936e-05
6.35917e-05
6.35905e-05
6.35896e-05
6.35891e-05
6.3589e-05
6.35892e-05
6.35898e-05
6.35906e-05
6.35917e-05
6.3593e-05
6.35951e-05
6.35965e-05
6.35984e-05
6.36014e-05
6.36028e-05
6.36048e-05
6.36072e-05
0.000191783
0.00019177
0.000191763
0.000191757
0.000191754
0.000191751
0.00019175
0.000191749
0.00019175
0.000191752
0.000191754
0.000191758
0.000191762
0.000191767
0.000191773
0.000191779
0.000191785
0.000191791
0.000191798
0.000191804
0.000322923
0.000322902
0.000322891
0.000322883
0.000322876
0.000322872
0.00032287
0.00032287
0.000322871
0.000322874
0.000322878
0.000322883
0.00032289
0.000322898
0.000322908
0.000322918
0.00032293
0.000322941
0.000322952
0.00032296
0.000459042
0.000459015
0.000459001
0.000458989
0.000458981
0.000458975
0.000458972
0.000458971
0.000458973
0.000458977
0.000458983
0.000458991
0.000459001
0.000459012
0.000459026
0.00045904
0.000459056
0.000459072
0.000459088
0.0004591
0.000602231
0.000602198
0.00060218
0.000602166
0.000602155
0.000602148
0.000602144
0.000602144
0.000602146
0.000602151
0.000602159
0.000602169
0.000602182
0.000602197
0.000602214
0.000602233
0.000602254
0.000602275
0.000602296
0.000602313
0.000754675
0.000754635
0.000754614
0.000754597
0.000754585
0.000754577
0.000754572
0.000754572
0.000754575
0.000754581
0.00075459
0.000754603
0.000754619
0.000754637
0.000754659
0.000754681
0.000754707
0.000754733
0.00075476
0.000754782
0.000918683
0.000918638
0.000918614
0.000918595
0.00091858
0.000918571
0.000918566
0.000918565
0.000918569
0.000918577
0.000918588
0.000918603
0.000918622
0.000918644
0.000918669
0.000918696
0.000918727
0.000918757
0.00091879
0.000918818
0.00109672
0.00109667
0.00109665
0.00109662
0.00109661
0.0010966
0.00109659
0.00109659
0.0010966
0.00109661
0.00109662
0.00109664
0.00109666
0.00109668
0.00109671
0.00109674
0.00109678
0.00109682
0.00109685
0.00109689
0.00129145
0.0012914
0.00129137
0.00129134
0.00129132
0.00129131
0.00129131
0.00129131
0.00129131
0.00129132
0.00129134
0.00129136
0.00129138
0.00129141
0.00129145
0.00129148
0.00129152
0.00129156
0.0012916
0.00129164
0.00150575
0.00150569
0.00150566
0.00150563
0.00150561
0.0015056
0.00150559
0.00150559
0.0015056
0.00150561
0.00150563
0.00150565
0.00150568
0.00150571
0.00150575
0.00150579
0.00150583
0.00150588
0.00150593
0.00150597
0.00174276
0.00174269
0.00174266
0.00174263
0.00174261
0.00174259
0.00174259
0.00174259
0.0017426
0.00174261
0.00174263
0.00174265
0.00174269
0.00174272
0.00174276
0.00174281
0.00174286
0.00174291
0.00174296
0.00174301
0.00200592
0.00200585
0.00200581
0.00200578
0.00200576
0.00200574
0.00200574
0.00200574
0.00200575
0.00200576
0.00200578
0.00200581
0.00200585
0.00200588
0.00200593
0.00200598
0.00200603
0.00200609
0.00200614
0.0020062
0.00229902
0.00229894
0.0022989
0.00229887
0.00229885
0.00229884
0.00229883
0.00229883
0.00229884
0.00229886
0.00229888
0.00229891
0.00229895
0.00229899
0.00229904
0.00229909
0.00229915
0.00229921
0.00229927
0.00229933
0.00262624
0.00262616
0.00262612
0.00262609
0.00262606
0.00262605
0.00262605
0.00262605
0.00262606
0.00262608
0.0026261
0.00262614
0.00262617
0.00262622
0.00262627
0.00262633
0.00262639
0.00262645
0.00262651
0.00262658
0.00299221
0.00299213
0.00299209
0.00299205
0.00299203
0.00299201
0.00299201
0.00299201
0.00299203
0.00299205
0.00299207
0.00299211
0.00299215
0.0029922
0.00299225
0.00299231
0.00299237
0.00299244
0.00299251
0.00299257
0.00340205
0.00340197
0.00340193
0.00340189
0.00340187
0.00340185
0.00340185
0.00340186
0.00340187
0.00340189
0.00340192
0.00340196
0.003402
0.00340205
0.0034021
0.00340216
0.00340223
0.0034023
0.00340237
0.00340244
0.00386146
0.00386137
0.00386133
0.00386129
0.00386127
0.00386126
0.00386126
0.00386126
0.00386128
0.0038613
0.00386133
0.00386137
0.00386141
0.00386146
0.00386152
0.00386158
0.00386166
0.00386173
0.0038618
0.00386187
0.00437675
0.00437666
0.00437662
0.00437658
0.00437656
0.00437655
0.00437655
0.00437656
0.00437657
0.0043766
0.00437663
0.00437667
0.00437671
0.00437676
0.00437682
0.00437689
0.00437696
0.00437704
0.00437711
0.00437719
0.00495495
0.00495486
0.00495482
0.00495478
0.00495476
0.00495475
0.00495475
0.00495476
0.00495478
0.00495481
0.00495484
0.00495488
0.00495492
0.00495497
0.00495504
0.0049551
0.00495518
0.00495525
0.00495533
0.0049554
0.00560388
0.00560379
0.00560375
0.00560371
0.00560369
0.00560368
0.00560369
0.0056037
0.00560372
0.00560374
0.00560378
0.00560382
0.00560386
0.00560391
0.00560398
0.00560404
0.00560412
0.00560419
0.00560427
0.00560435
0.00633222
0.00633214
0.0063321
0.00633206
0.00633205
0.00633204
0.00633204
0.00633206
0.00633208
0.00633211
0.00633214
0.00633218
0.00633222
0.00633227
0.00633234
0.0063324
0.00633247
0.00633255
0.00633262
0.0063327
0.00714966
0.00714958
0.00714954
0.00714951
0.00714949
0.00714949
0.00714949
0.00714951
0.00714953
0.00714956
0.00714959
0.00714963
0.00714968
0.00714973
0.00714979
0.00714985
0.00714992
0.00714999
0.00715007
0.00715015
0.00806694
0.00806687
0.00806683
0.0080668
0.00806679
0.00806679
0.0080668
0.00806682
0.00806684
0.00806687
0.0080669
0.00806694
0.00806698
0.00806703
0.00806709
0.00806714
0.00806722
0.00806729
0.00806736
0.00806743
0.00909604
0.00909598
0.00909594
0.00909592
0.00909591
0.00909591
0.00909592
0.00909594
0.00909597
0.009096
0.00909603
0.00909607
0.00909611
0.00909615
0.0090962
0.00909625
0.00909632
0.00909639
0.00909646
0.00909653
0.0102503
0.0102502
0.0102502
0.0102502
0.0102501
0.0102502
0.0102502
0.0102502
0.0102502
0.0102502
0.0102503
0.0102503
0.0102503
0.0102504
0.0102504
0.0102505
0.0102505
0.0102506
0.0102507
0.0102507
0.0115444
0.0115443
0.0115443
0.0115443
0.0115443
0.0115443
0.0115443
0.0115443
0.0115444
0.0115444
0.0115444
0.0115445
0.0115445
0.0115445
0.0115446
0.0115446
0.0115447
0.0115447
0.0115448
0.0115448
0.0129948
0.0129948
0.0129948
0.0129948
0.0129948
0.0129948
0.0129948
0.0129948
0.0129949
0.0129949
0.0129949
0.0129949
0.012995
0.012995
0.012995
0.0129951
0.0129951
0.0129952
0.0129952
0.0129953
0.0146199
0.0146198
0.0146198
0.0146198
0.0146198
0.0146198
0.0146199
0.0146199
0.0146199
0.01462
0.01462
0.01462
0.01462
0.01462
0.0146201
0.0146201
0.0146201
0.0146202
0.0146202
0.0146203
0.0164397
0.0164397
0.0164397
0.0164397
0.0164397
0.0164397
0.0164398
0.0164398
0.0164398
0.0164398
0.0164399
0.0164399
0.0164399
0.0164399
0.0164399
0.0164399
0.01644
0.01644
0.01644
0.0164401
0.0184768
0.0184768
0.0184768
0.0184768
0.0184769
0.0184769
0.0184769
0.018477
0.018477
0.018477
0.018477
0.018477
0.018477
0.018477
0.018477
0.018477
0.0184771
0.0184771
0.0184771
0.0184771
0.0207561
0.0207561
0.0207561
0.0207561
0.0207562
0.0207562
0.0207562
0.0207563
0.0207563
0.0207563
0.0207563
0.0207563
0.0207563
0.0207563
0.0207563
0.0207563
0.0207563
0.0207563
0.0207563
0.0207564
0.0233051
0.0233052
0.0233052
0.0233052
0.0233052
0.0233053
0.0233053
0.0233054
0.0233054
0.0233054
0.0233054
0.0233054
0.0233054
0.0233054
0.0233053
0.0233053
0.0233053
0.0233053
0.0233053
0.0233053
0.0261544
0.0261545
0.0261545
0.0261545
0.0261546
0.0261546
0.0261546
0.0261547
0.0261547
0.0261547
0.0261547
0.0261547
0.0261547
0.0261547
0.0261546
0.0261546
0.0261546
0.0261545
0.0261545
0.0261546
0.0293378
0.0293378
0.0293379
0.0293379
0.0293379
0.029338
0.029338
0.0293381
0.0293381
0.0293381
0.0293381
0.0293381
0.029338
0.029338
0.029338
0.0293379
0.0293379
0.0293378
0.0293378
0.0293378
0.0328925
0.0328926
0.0328926
0.0328926
0.0328927
0.0328927
0.0328928
0.0328928
0.0328928
0.0328928
0.0328928
0.0328928
0.0328928
0.0328927
0.0328926
0.0328926
0.0328925
0.0328925
0.0328925
0.0328925
0.0368598
0.0368599
0.0368599
0.0368599
0.03686
0.03686
0.0368601
0.0368601
0.0368602
0.0368602
0.0368601
0.0368601
0.0368601
0.03686
0.0368599
0.0368598
0.0368598
0.0368597
0.0368597
0.0368597
0.0412852
0.0412852
0.0412853
0.0412853
0.0412853
0.0412854
0.0412855
0.0412855
0.0412855
0.0412856
0.0412855
0.0412855
0.0412854
0.0412853
0.0412853
0.0412852
0.0412851
0.0412851
0.041285
0.041285
0.0462188
0.0462188
0.0462189
0.0462189
0.0462189
0.046219
0.046219
0.0462191
0.0462191
0.0462191
0.0462191
0.0462191
0.046219
0.0462189
0.0462188
0.0462187
0.0462187
0.0462186
0.0462186
0.0462186
0.0517158
0.0517159
0.0517159
0.0517159
0.051716
0.051716
0.0517161
0.0517161
0.0517162
0.0517162
0.0517161
0.0517161
0.051716
0.0517159
0.0517158
0.0517157
0.0517157
0.0517156
0.0517156
0.0517156
0.057837
0.0578371
0.0578371
0.0578371
0.0578372
0.0578372
0.0578373
0.0578373
0.0578374
0.0578374
0.0578373
0.0578373
0.0578372
0.0578371
0.057837
0.0578369
0.0578369
0.0578368
0.0578368
0.0578368
0.0646492
0.0646493
0.0646493
0.0646493
0.0646493
0.0646494
0.0646494
0.0646495
0.0646496
0.0646496
0.0646495
0.0646495
0.0646494
0.0646493
0.0646492
0.0646491
0.0646491
0.064649
0.064649
0.064649
0.0722257
0.0722257
0.0722257
0.0722257
0.0722257
0.0722258
0.0722259
0.0722259
0.072226
0.072226
0.072226
0.0722259
0.0722258
0.0722257
0.0722257
0.0722256
0.0722256
0.0722255
0.0722255
0.0722256
0.0806468
0.0806468
0.0806468
0.0806468
0.0806468
0.0806468
0.0806469
0.080647
0.0806471
0.0806471
0.0806471
0.080647
0.080647
0.0806468
0.0806468
0.0806467
0.0806467
0.0806467
0.0806467
0.0806468
0.0900006
0.0900006
0.0900006
0.0900005
0.0900005
0.0900006
0.0900007
0.0900008
0.0900008
0.0900009
0.0900008
0.0900008
0.0900007
0.0900006
0.0900006
0.0900005
0.0900006
0.0900005
0.0900006
0.0900007
0.100383
0.100383
0.100383
0.100383
0.100383
0.100383
0.100383
0.100383
0.100384
0.100384
0.100384
0.100384
0.100384
0.100383
0.100383
0.100383
0.100383
0.100383
0.100383
0.100384
0.1119
0.1119
0.1119
0.1119
0.1119
0.1119
0.1119
0.1119
0.1119
0.1119
0.1119
0.1119
0.1119
0.1119
0.1119
0.1119
0.1119
0.1119
0.1119
0.111901
0.124666
0.124666
0.124666
0.124666
0.124666
0.124666
0.124666
0.124666
0.124666
0.124666
0.124666
0.124666
0.124666
0.124666
0.124666
0.124666
0.124666
0.124666
0.124666
0.124667
0.138805
0.138805
0.138805
0.138805
0.138805
0.138805
0.138805
0.138806
0.138806
0.138806
0.138806
0.138806
0.138806
0.138806
0.138806
0.138806
0.138806
0.138806
0.138806
0.138806
0.154455
0.154455
0.154454
0.154454
0.154454
0.154454
0.154455
0.154455
0.154455
0.154455
0.154455
0.154455
0.154455
0.154455
0.154455
0.154455
0.154455
0.154455
0.154456
0.154456
0.171761
0.171761
0.171761
0.171761
0.171761
0.171761
0.171762
0.171762
0.171762
0.171762
0.171762
0.171762
0.171762
0.171762
0.171762
0.171762
0.171762
0.171762
0.171763
0.171763
0.190886
0.190886
0.190886
0.190886
0.190886
0.190886
0.190886
0.190886
0.190886
0.190887
0.190887
0.190887
0.190887
0.190887
0.190887
0.190887
0.190887
0.190887
0.190887
0.190888
0.212001
0.212001
0.212001
0.212001
0.212001
0.212001
0.212002
0.212002
0.212002
0.212002
0.212002
0.212002
0.212002
0.212002
0.212002
0.212002
0.212003
0.212003
0.212003
0.212003
0.235296
0.235296
0.235295
0.235295
0.235295
0.235296
0.235296
0.235296
0.235296
0.235297
0.235297
0.235297
0.235297
0.235296
0.235296
0.235296
0.235297
0.235297
0.235297
0.235297
0.260971
0.260971
0.260971
0.260971
0.260971
0.260971
0.260971
0.260971
0.260972
0.260972
0.260972
0.260972
0.260972
0.260972
0.260972
0.260971
0.260972
0.260972
0.260972
0.260972
0.289245
0.289245
0.289245
0.289245
0.289245
0.289245
0.289245
0.289246
0.289246
0.289246
0.289246
0.289246
0.289246
0.289246
0.289246
0.289245
0.289246
0.289246
0.289246
0.289246
0.320353
0.320353
0.320353
0.320352
0.320353
0.320353
0.320353
0.320353
0.320354
0.320354
0.320354
0.320354
0.320353
0.320353
0.320353
0.320353
0.320353
0.320353
0.320353
0.320354
0.354546
0.354545
0.354545
0.354545
0.354545
0.354545
0.354546
0.354546
0.354546
0.354546
0.354546
0.354546
0.354546
0.354545
0.354545
0.354545
0.354545
0.354545
0.354545
0.354546
0.392093
0.392092
0.392092
0.392092
0.392092
0.392092
0.392093
0.392093
0.392093
0.392093
0.392093
0.392093
0.392093
0.392092
0.392092
0.392092
0.392092
0.392092
0.392092
0.392093
0.433282
0.433282
0.433282
0.433281
0.433281
0.433281
0.433282
0.433282
0.433282
0.433282
0.433282
0.433282
0.433281
0.433281
0.433281
0.43328
0.43328
0.43328
0.433281
0.433281
0.47842
0.47842
0.478419
0.478419
0.478419
0.478419
0.47842
0.47842
0.47842
0.47842
0.47842
0.478419
0.478419
0.478418
0.478418
0.478418
0.478418
0.478418
0.478418
0.478419
0.527832
0.527832
0.527832
0.527832
0.527832
0.527832
0.527832
0.527832
0.527832
0.527832
0.527832
0.527832
0.527831
0.52783
0.52783
0.52783
0.52783
0.52783
0.52783
0.527831
0.581866
0.581865
0.581865
0.581865
0.581865
0.581865
0.581865
0.581865
0.581865
0.581865
0.581865
0.581864
0.581864
0.581863
0.581863
0.581863
0.581863
0.581863
0.581863
0.581864
0.640885
0.640885
0.640885
0.640884
0.640884
0.640884
0.640884
0.640885
0.640885
0.640884
0.640884
0.640883
0.640883
0.640882
0.640882
0.640882
0.640882
0.640882
0.640882
0.640883
0.705275
0.705275
0.705275
0.705274
0.705274
0.705274
0.705275
0.705275
0.705275
0.705275
0.705274
0.705274
0.705273
0.705272
0.705272
0.705272
0.705272
0.705272
0.705273
0.705273
0.775442
0.775442
0.775441
0.775441
0.775441
0.775441
0.775441
0.775441
0.775441
0.775441
0.77544
0.77544
0.775439
0.775439
0.775438
0.775438
0.775438
0.775439
0.775439
0.77544
0.851808
0.851808
0.851807
0.851807
0.851807
0.851806
0.851807
0.851807
0.851807
0.851807
0.851806
0.851806
0.851805
0.851804
0.851804
0.851804
0.851804
0.851805
0.851805
0.851806
0.934815
0.934815
0.934814
0.934814
0.934814
0.934813
0.934814
0.934814
0.934814
0.934814
0.934813
0.934813
0.934812
0.934811
0.934811
0.934811
0.934812
0.934812
0.934812
0.934814
1.02492
1.02492
1.02492
1.02492
1.02492
1.02492
1.02492
1.02492
1.02492
1.02492
1.02492
1.02492
1.02492
1.02492
1.02492
1.02492
1.02492
1.02492
1.02492
1.02492
1.1226
1.1226
1.1226
1.1226
1.1226
1.1226
1.1226
1.1226
1.1226
1.1226
1.1226
1.1226
1.1226
1.1226
1.1226
1.1226
1.1226
1.1226
1.1226
1.1226
1.22834
1.22834
1.22834
1.22834
1.22834
1.22834
1.22834
1.22834
1.22834
1.22834
1.22834
1.22834
1.22834
1.22834
1.22834
1.22834
1.22834
1.22834
1.22834
1.22834
1.34265
1.34265
1.34265
1.34265
1.34264
1.34264
1.34264
1.34264
1.34264
1.34264
1.34264
1.34264
1.34264
1.34264
1.34264
1.34264
1.34264
1.34264
1.34265
1.34265
1.46602
1.46602
1.46602
1.46601
1.46601
1.46601
1.46601
1.46601
1.46601
1.46601
1.46601
1.46601
1.46601
1.46601
1.46601
1.46601
1.46601
1.46601
1.46602
1.46602
1.59897
1.59897
1.59897
1.59896
1.59896
1.59896
1.59896
1.59896
1.59896
1.59896
1.59896
1.59896
1.59896
1.59896
1.59896
1.59896
1.59896
1.59896
1.59897
1.59897
1.74201
1.74201
1.74201
1.74201
1.74201
1.74201
1.74201
1.74201
1.74201
1.74201
1.742
1.742
1.742
1.742
1.742
1.742
1.74201
1.74201
1.74201
1.74201
1.89565
1.89565
1.89565
1.89565
1.89565
1.89565
1.89565
1.89565
1.89565
1.89565
1.89565
1.89565
1.89565
1.89565
1.89565
1.89565
1.89565
1.89565
1.89565
1.89566
2.06041
2.0604
2.0604
2.0604
2.0604
2.0604
2.0604
2.0604
2.0604
2.0604
2.0604
2.0604
2.0604
2.0604
2.0604
2.0604
2.0604
2.0604
2.06041
2.06041
2.23675
2.23675
2.23675
2.23674
2.23674
2.23674
2.23674
2.23674
2.23674
2.23674
2.23674
2.23674
2.23674
2.23674
2.23674
2.23674
2.23674
2.23675
2.23675
2.23675
2.42515
2.42515
2.42515
2.42515
2.42514
2.42514
2.42514
2.42514
2.42514
2.42514
2.42514
2.42514
2.42514
2.42514
2.42514
2.42514
2.42515
2.42515
2.42515
2.42515
2.62605
2.62605
2.62605
2.62604
2.62604
2.62604
2.62604
2.62604
2.62604
2.62604
2.62604
2.62604
2.62604
2.62604
2.62604
2.62604
2.62604
2.62605
2.62605
2.62605
2.83985
2.83985
2.83985
2.83984
2.83984
2.83984
2.83984
2.83984
2.83984
2.83984
2.83984
2.83984
2.83984
2.83984
2.83984
2.83984
2.83985
2.83985
2.83985
2.83985
3.06691
3.06691
3.06691
3.06691
3.06691
3.06691
3.06691
3.06691
3.06691
3.06691
3.06691
3.06691
3.06691
3.06691
3.06691
3.06691
3.06691
3.06691
3.06691
3.06692
3.30755
3.30755
3.30755
3.30755
3.30755
3.30755
3.30755
3.30755
3.30755
3.30754
3.30754
3.30754
3.30754
3.30754
3.30754
3.30755
3.30755
3.30755
3.30755
3.30755
3.56201
3.56201
3.56201
3.562
3.562
3.562
3.562
3.562
3.562
3.562
3.562
3.562
3.562
3.562
3.562
3.562
3.56201
3.56201
3.56201
3.56201
3.83047
3.83047
3.83047
3.83046
3.83046
3.83046
3.83046
3.83046
3.83046
3.83046
3.83046
3.83046
3.83046
3.83046
3.83046
3.83046
3.83046
3.83047
3.83047
3.83047
4.11303
4.11302
4.11302
4.11302
4.11302
4.11302
4.11302
4.11302
4.11302
4.11302
4.11302
4.11302
4.11302
4.11302
4.11302
4.11302
4.11302
4.11302
4.11303
4.11303
4.40969
4.40969
4.40969
4.40969
4.40969
4.40969
4.40969
4.40969
4.40969
4.40969
4.40969
4.40969
4.40969
4.40969
4.40969
4.40969
4.40969
4.40969
4.4097
4.4097
4.72039
4.72039
4.72039
4.72039
4.72039
4.72039
4.72039
4.72039
4.72039
4.72039
4.72039
4.72038
4.72038
4.72038
4.72039
4.72039
4.72039
4.72039
4.72039
4.72039
5.04492
5.04492
5.04492
5.04491
5.04491
5.04491
5.04491
5.04491
5.04491
5.04491
5.04491
5.04491
5.04491
5.04491
5.04491
5.04491
5.04492
5.04492
5.04492
5.04492
5.38297
5.38297
5.38297
5.38297
5.38297
5.38297
5.38297
5.38297
5.38297
5.38297
5.38297
5.38297
5.38297
5.38297
5.38297
5.38297
5.38297
5.38297
5.38297
5.38297
5.73413
5.73413
5.73413
5.73413
5.73413
5.73413
5.73413
5.73413
5.73413
5.73413
5.73413
5.73412
5.73412
5.73412
5.73412
5.73413
5.73413
5.73413
5.73413
5.73413
6.09784
6.09784
6.09784
6.09783
6.09783
6.09783
6.09784
6.09784
6.09784
6.09784
6.09783
6.09783
6.09783
6.09783
6.09783
6.09784
6.09784
6.09784
6.09784
6.09784
6.47342
6.47342
6.47342
6.47342
6.47342
6.47342
6.47342
6.47342
6.47342
6.47342
6.47342
6.47342
6.47342
6.47342
6.47342
6.47342
6.47342
6.47342
6.47342
6.47342
6.86007
6.86007
6.86007
6.86007
6.86007
6.86007
6.86007
6.86007
6.86007
6.86007
6.86007
6.86007
6.86007
6.86007
6.86007
6.86007
6.86007
6.86007
6.86007
6.86007
7.25686
7.25686
7.25686
7.25685
7.25685
7.25685
7.25686
7.25686
7.25686
7.25686
7.25686
7.25686
7.25685
7.25685
7.25685
7.25685
7.25685
7.25686
7.25686
7.25686
7.66272
7.66272
7.66272
7.66272
7.66272
7.66272
7.66272
7.66272
7.66272
7.66272
7.66272
7.66272
7.66272
7.66272
7.66272
7.66272
7.66272
7.66272
7.66272
7.66272
8.07648
8.07648
8.07648
8.07648
8.07648
8.07648
8.07648
8.07648
8.07648
8.07648
8.07648
8.07648
8.07648
8.07648
8.07648
8.07648
8.07648
8.07648
8.07648
8.07648
8.49687
8.49687
8.49687
8.49687
8.49687
8.49687
8.49687
8.49687
8.49687
8.49687
8.49687
8.49687
8.49687
8.49687
8.49687
8.49687
8.49687
8.49687
8.49687
8.49687
8.92251
8.92251
8.92251
8.92251
8.92251
8.92251
8.92251
8.92251
8.92251
8.92251
8.92251
8.92251
8.92251
8.92251
8.92251
8.92251
8.92251
8.92251
8.92252
8.92251
9.35197
9.35197
9.35197
9.35197
9.35197
9.35197
9.35197
9.35197
9.35197
9.35197
9.35197
9.35197
9.35197
9.35197
9.35197
9.35197
9.35197
9.35197
9.35197
9.35197
9.78373
9.78373
9.78373
9.78373
9.78373
9.78373
9.78373
9.78373
9.78373
9.78373
9.78373
9.78373
9.78373
9.78373
9.78373
9.78373
9.78373
9.78373
9.78373
9.78373
6.3596e-05
6.35918e-05
6.35895e-05
6.35878e-05
6.35864e-05
6.35856e-05
6.35851e-05
6.35849e-05
6.35854e-05
6.35859e-05
6.35865e-05
6.35879e-05
6.35893e-05
6.35907e-05
6.35926e-05
6.35951e-05
6.3597e-05
6.35989e-05
6.36018e-05
6.36037e-05
0.00019177
0.000191758
0.000191752
0.000191747
0.000191743
0.00019174
0.000191739
0.000191739
0.000191739
0.000191741
0.000191744
0.000191747
0.000191751
0.000191756
0.000191762
0.000191768
0.000191775
0.000191781
0.000191789
0.000191795
0.000322902
0.000322885
0.000322874
0.000322866
0.00032286
0.000322856
0.000322854
0.000322853
0.000322855
0.000322857
0.000322861
0.000322867
0.000322874
0.000322883
0.000322892
0.000322903
0.000322914
0.000322925
0.000322938
0.000322949
0.000459015
0.000458992
0.000458979
0.000458968
0.000458959
0.000458953
0.00045895
0.00045895
0.000458952
0.000458955
0.000458962
0.00045897
0.00045898
0.000458991
0.000459005
0.00045902
0.000459036
0.000459052
0.00045907
0.000459087
0.000602198
0.00060217
0.000602153
0.000602139
0.000602129
0.000602122
0.000602118
0.000602117
0.00060212
0.000602125
0.000602133
0.000602143
0.000602156
0.000602171
0.000602188
0.000602208
0.000602228
0.00060225
0.000602273
0.000602295
0.000754635
0.000754602
0.000754582
0.000754566
0.000754554
0.000754545
0.000754541
0.00075454
0.000754544
0.00075455
0.000754559
0.000754572
0.000754588
0.000754607
0.000754628
0.000754651
0.000754677
0.000754704
0.000754733
0.00075476
0.000918638
0.0009186
0.000918577
0.000918558
0.000918544
0.000918534
0.00091853
0.000918529
0.000918533
0.000918541
0.000918552
0.000918568
0.000918586
0.000918609
0.000918633
0.000918662
0.000918692
0.000918724
0.000918758
0.000918791
0.00109667
0.00109663
0.0010966
0.00109658
0.00109657
0.00109656
0.00109655
0.00109655
0.00109656
0.00109656
0.00109658
0.0010966
0.00109662
0.00109664
0.00109667
0.00109671
0.00109674
0.00109678
0.00109682
0.00109686
0.0012914
0.00129135
0.00129132
0.0012913
0.00129128
0.00129127
0.00129126
0.00129126
0.00129127
0.00129128
0.00129129
0.00129131
0.00129134
0.00129137
0.0012914
0.00129144
0.00129148
0.00129152
0.00129157
0.00129161
0.00150569
0.00150564
0.00150561
0.00150558
0.00150556
0.00150555
0.00150554
0.00150554
0.00150555
0.00150556
0.00150558
0.0015056
0.00150563
0.00150566
0.0015057
0.00150574
0.00150579
0.00150583
0.00150588
0.00150593
0.00174269
0.00174263
0.0017426
0.00174257
0.00174255
0.00174254
0.00174253
0.00174254
0.00174254
0.00174256
0.00174258
0.0017426
0.00174263
0.00174267
0.00174271
0.00174276
0.0017428
0.00174286
0.00174291
0.00174297
0.00200585
0.00200579
0.00200575
0.00200572
0.0020057
0.00200569
0.00200568
0.00200568
0.00200569
0.00200571
0.00200573
0.00200576
0.00200579
0.00200583
0.00200587
0.00200592
0.00200598
0.00200603
0.00200609
0.00200615
0.00229894
0.00229888
0.00229884
0.00229881
0.00229879
0.00229877
0.00229877
0.00229877
0.00229878
0.0022988
0.00229882
0.00229885
0.00229889
0.00229893
0.00229898
0.00229903
0.00229909
0.00229915
0.00229922
0.00229928
0.00262616
0.00262609
0.00262606
0.00262602
0.002626
0.00262599
0.00262598
0.00262599
0.002626
0.00262602
0.00262604
0.00262607
0.00262611
0.00262616
0.00262621
0.00262627
0.00262633
0.00262639
0.00262646
0.00262653
0.00299213
0.00299206
0.00299202
0.00299199
0.00299196
0.00299195
0.00299194
0.00299195
0.00299196
0.00299198
0.00299201
0.00299204
0.00299208
0.00299213
0.00299219
0.00299225
0.00299231
0.00299238
0.00299245
0.00299252
0.00340197
0.0034019
0.00340186
0.00340182
0.0034018
0.00340179
0.00340178
0.00340179
0.0034018
0.00340182
0.00340185
0.00340189
0.00340193
0.00340198
0.00340204
0.0034021
0.00340217
0.00340224
0.00340232
0.00340239
0.00386137
0.0038613
0.00386126
0.00386122
0.0038612
0.00386119
0.00386119
0.00386119
0.00386121
0.00386123
0.00386126
0.0038613
0.00386134
0.0038614
0.00386145
0.00386152
0.00386159
0.00386167
0.00386175
0.00386182
0.00437666
0.00437659
0.00437655
0.00437651
0.00437649
0.00437648
0.00437648
0.00437649
0.0043765
0.00437653
0.00437656
0.0043766
0.00437664
0.0043767
0.00437675
0.00437682
0.0043769
0.00437697
0.00437705
0.00437713
0.00495486
0.00495479
0.00495475
0.00495471
0.00495469
0.00495468
0.00495468
0.00495469
0.00495471
0.00495474
0.00495477
0.00495481
0.00495486
0.00495491
0.00495497
0.00495504
0.00495511
0.00495519
0.00495527
0.00495535
0.00560379
0.00560372
0.00560368
0.00560364
0.00560363
0.00560362
0.00560362
0.00560363
0.00560365
0.00560368
0.00560371
0.00560375
0.0056038
0.00560385
0.00560391
0.00560398
0.00560405
0.00560413
0.00560422
0.00560429
0.00633214
0.00633207
0.00633203
0.006332
0.00633198
0.00633197
0.00633198
0.00633199
0.00633201
0.00633204
0.00633208
0.00633211
0.00633216
0.00633221
0.00633227
0.00633234
0.00633241
0.00633249
0.00633257
0.00633265
0.00714958
0.00714951
0.00714947
0.00714945
0.00714943
0.00714943
0.00714943
0.00714945
0.00714947
0.0071495
0.00714953
0.00714957
0.00714962
0.00714967
0.00714972
0.00714979
0.00714986
0.00714994
0.00715002
0.0071501
0.00806687
0.00806681
0.00806677
0.00806675
0.00806674
0.00806673
0.00806674
0.00806676
0.00806679
0.00806681
0.00806685
0.00806689
0.00806693
0.00806698
0.00806703
0.00806709
0.00806716
0.00806724
0.00806732
0.00806739
0.00909598
0.00909592
0.00909589
0.00909587
0.00909586
0.00909586
0.00909587
0.00909589
0.00909592
0.00909595
0.00909598
0.00909602
0.00909606
0.0090961
0.00909615
0.00909621
0.00909627
0.00909634
0.00909642
0.00909649
0.0102502
0.0102502
0.0102501
0.0102501
0.0102501
0.0102501
0.0102501
0.0102501
0.0102502
0.0102502
0.0102502
0.0102503
0.0102503
0.0102503
0.0102504
0.0102504
0.0102505
0.0102506
0.0102506
0.0102507
0.0115443
0.0115443
0.0115443
0.0115443
0.0115443
0.0115443
0.0115443
0.0115443
0.0115443
0.0115444
0.0115444
0.0115444
0.0115445
0.0115445
0.0115445
0.0115446
0.0115446
0.0115447
0.0115448
0.0115448
0.0129948
0.0129948
0.0129948
0.0129947
0.0129947
0.0129948
0.0129948
0.0129948
0.0129948
0.0129949
0.0129949
0.0129949
0.0129949
0.012995
0.012995
0.012995
0.0129951
0.0129951
0.0129952
0.0129952
0.0146198
0.0146198
0.0146198
0.0146198
0.0146198
0.0146198
0.0146199
0.0146199
0.0146199
0.0146199
0.01462
0.01462
0.01462
0.01462
0.01462
0.0146201
0.0146201
0.0146202
0.0146202
0.0146202
0.0164397
0.0164397
0.0164397
0.0164397
0.0164397
0.0164397
0.0164398
0.0164398
0.0164398
0.0164398
0.0164399
0.0164399
0.0164399
0.0164399
0.0164399
0.0164399
0.0164399
0.01644
0.01644
0.01644
0.0184768
0.0184768
0.0184768
0.0184768
0.0184769
0.0184769
0.0184769
0.018477
0.018477
0.018477
0.018477
0.018477
0.018477
0.018477
0.018477
0.018477
0.0184771
0.0184771
0.0184771
0.0184771
0.0207561
0.0207561
0.0207561
0.0207562
0.0207562
0.0207562
0.0207563
0.0207563
0.0207563
0.0207564
0.0207564
0.0207564
0.0207564
0.0207563
0.0207563
0.0207563
0.0207563
0.0207563
0.0207563
0.0207563
0.0233052
0.0233052
0.0233052
0.0233052
0.0233053
0.0233053
0.0233053
0.0233054
0.0233054
0.0233054
0.0233054
0.0233054
0.0233054
0.0233054
0.0233054
0.0233053
0.0233053
0.0233053
0.0233053
0.0233053
0.0261545
0.0261545
0.0261545
0.0261546
0.0261546
0.0261546
0.0261547
0.0261547
0.0261548
0.0261548
0.0261548
0.0261548
0.0261547
0.0261547
0.0261547
0.0261546
0.0261546
0.0261546
0.0261546
0.0261545
0.0293378
0.0293379
0.0293379
0.0293379
0.029338
0.029338
0.0293381
0.0293381
0.0293382
0.0293382
0.0293382
0.0293381
0.0293381
0.029338
0.029338
0.029338
0.0293379
0.0293379
0.0293379
0.0293378
0.0328926
0.0328926
0.0328926
0.0328927
0.0328927
0.0328928
0.0328928
0.0328929
0.0328929
0.0328929
0.0328929
0.0328929
0.0328928
0.0328928
0.0328927
0.0328926
0.0328926
0.0328925
0.0328925
0.0328925
0.0368599
0.0368599
0.03686
0.03686
0.03686
0.0368601
0.0368602
0.0368602
0.0368602
0.0368602
0.0368602
0.0368602
0.0368601
0.03686
0.03686
0.0368599
0.0368598
0.0368598
0.0368598
0.0368597
0.0412852
0.0412853
0.0412853
0.0412854
0.0412854
0.0412855
0.0412855
0.0412856
0.0412856
0.0412856
0.0412856
0.0412856
0.0412855
0.0412854
0.0412853
0.0412852
0.0412852
0.0412851
0.0412851
0.041285
0.0462188
0.0462189
0.0462189
0.046219
0.046219
0.0462191
0.0462191
0.0462192
0.0462192
0.0462192
0.0462192
0.0462191
0.0462191
0.046219
0.0462189
0.0462188
0.0462187
0.0462187
0.0462186
0.0462185
0.0517159
0.0517159
0.051716
0.051716
0.051716
0.0517161
0.0517161
0.0517162
0.0517162
0.0517162
0.0517162
0.0517162
0.0517161
0.051716
0.0517159
0.0517158
0.0517157
0.0517157
0.0517156
0.0517155
0.0578371
0.0578371
0.0578372
0.0578372
0.0578372
0.0578373
0.0578373
0.0578374
0.0578375
0.0578374
0.0578374
0.0578374
0.0578373
0.0578372
0.0578371
0.057837
0.0578369
0.0578369
0.0578368
0.0578367
0.0646493
0.0646493
0.0646493
0.0646493
0.0646494
0.0646494
0.0646495
0.0646496
0.0646496
0.0646496
0.0646496
0.0646495
0.0646494
0.0646493
0.0646492
0.0646492
0.0646491
0.0646491
0.064649
0.0646489
0.0722257
0.0722257
0.0722257
0.0722257
0.0722258
0.0722258
0.0722259
0.072226
0.072226
0.072226
0.072226
0.072226
0.0722259
0.0722258
0.0722257
0.0722256
0.0722256
0.0722255
0.0722255
0.0722255
0.0806468
0.0806468
0.0806468
0.0806468
0.0806468
0.0806469
0.080647
0.080647
0.0806471
0.0806471
0.0806471
0.080647
0.080647
0.0806469
0.0806468
0.0806467
0.0806467
0.0806467
0.0806467
0.0806466
0.0900006
0.0900005
0.0900005
0.0900005
0.0900005
0.0900006
0.0900007
0.0900008
0.0900009
0.0900009
0.0900009
0.0900008
0.0900007
0.0900006
0.0900006
0.0900005
0.0900005
0.0900005
0.0900006
0.0900005
0.100383
0.100383
0.100383
0.100383
0.100383
0.100383
0.100383
0.100383
0.100384
0.100384
0.100384
0.100384
0.100383
0.100383
0.100383
0.100383
0.100383
0.100383
0.100383
0.100383
0.1119
0.1119
0.1119
0.1119
0.1119
0.1119
0.1119
0.1119
0.1119
0.1119
0.1119
0.1119
0.1119
0.1119
0.1119
0.1119
0.1119
0.1119
0.1119
0.1119
0.124666
0.124666
0.124666
0.124666
0.124666
0.124666
0.124666
0.124666
0.124666
0.124666
0.124666
0.124666
0.124666
0.124666
0.124666
0.124666
0.124666
0.124666
0.124666
0.124666
0.138805
0.138805
0.138805
0.138805
0.138805
0.138805
0.138805
0.138805
0.138806
0.138806
0.138806
0.138806
0.138806
0.138806
0.138806
0.138806
0.138806
0.138806
0.138806
0.138806
0.154455
0.154454
0.154454
0.154454
0.154454
0.154454
0.154455
0.154455
0.154455
0.154455
0.154455
0.154455
0.154455
0.154455
0.154455
0.154455
0.154455
0.154455
0.154456
0.154456
0.171761
0.171761
0.171761
0.171761
0.171761
0.171761
0.171761
0.171762
0.171762
0.171762
0.171762
0.171762
0.171762
0.171762
0.171762
0.171762
0.171762
0.171762
0.171763
0.171763
0.190886
0.190886
0.190886
0.190885
0.190886
0.190886
0.190886
0.190886
0.190886
0.190887
0.190887
0.190887
0.190887
0.190887
0.190887
0.190887
0.190887
0.190887
0.190887
0.190887
0.212001
0.212001