/*--------------------------------*- C++ -*----------------------------------*\
| =========                 |                                                 |
| \\      /  F ield         | OpenFOAM: The Open Source CFD Toolbox           |
|  \\    /   O peration     | Version:  2.1.0                                 |
|   \\  /    A nd           | Web:      www.OpenFOAM.org                      |
|    \\/     M anipulation  |                                                 |
\*---------------------------------------------------------------------------*/
FoamFile
{
    version     2.0;
    format      ascii;
    class       volScalarField;
    location    "20075";
    object      kr_o;
}
// * * * * * * * * * * * * * * * * * * * * * * * * * * * * * * * * * * * * * //

dimensions      [0 0 0 0 0 0 0];

internalField   nonuniform List<scalar> 
15000
(
7.60018e-11
1.19563e-06
7.10226e-05
0.000567223
0.00186603
0.00394988
0.00662401
0.0097264
0.0131503
0.0168225
0.0206875
0.0246997
0.0288201
0.0330145
0.0372524
0.0415073
0.045757
0.0499837
0.0541731
0.0583142
0.0623996
0.0664258
0.0703894
0.0742866
0.0781145
0.0818715
0.085558
0.0891761
0.092728
0.0962155
0.0996411
0.103009
0.106323
0.109589
0.11281
0.11599
0.119133
0.122244
0.125326
0.128384
0.131422
0.134443
0.137451
0.140449
0.14344
0.146427
0.149414
0.1524
0.155387
0.158377
0.161371
0.164368
0.167369
0.170374
0.173381
0.17639
0.179399
0.182408
0.185416
0.188422
0.191425
0.194427
0.197428
0.200428
0.203431
0.206438
0.209452
0.212479
0.215521
0.218586
0.221678
0.224805
0.227976
0.231201
0.234489
0.237854
0.24131
0.244875
0.24857
0.252419
0.256456
0.260721
0.265268
0.270174
0.275541
0.28152
0.28833
0.29631
0.305996
0.318274
0.334656
0.357738
0.391522
0.439205
0.493508
0.534005
0.55305
0.55967
0.561685
0.562268
0.562435
0.562482
0.562495
0.562499
0.5625
0.5625
0.5625
0.5625
0.5625
0.5625
0.5625
0.5625
0.5625
0.5625
0.5625
0.5625
0.5625
0.5625
0.5625
0.5625
0.5625
0.5625
0.5625
0.5625
0.5625
0.5625
0.5625
0.5625
0.5625
0.5625
0.5625
0.5625
0.5625
0.5625
0.5625
0.5625
0.5625
0.5625
0.5625
0.5625
0.5625
0.5625
0.5625
0.5625
0.5625
0.5625
0.5625
0.5625
0.5625
0.5625
1.25039e-06
2.595e-05
0.000256463
0.00107556
0.00266257
0.00491464
0.00767083
0.0108094
0.0142464
0.0179201
0.0217811
0.0257877
0.0299022
0.0340912
0.0383243
0.042576
0.0468247
0.0510524
0.0552442
0.0593887
0.0634793
0.0675125
0.0714836
0.0753878
0.0792218
0.0829847
0.0866775
0.0903013
0.0938568
0.0973457
0.100772
0.104139
0.107454
0.110718
0.113936
0.117112
0.12025
0.123355
0.126431
0.129482
0.132512
0.135525
0.138524
0.141513
0.144496
0.147476
0.150454
0.153433
0.156414
0.1594
0.16239
0.165386
0.168388
0.171395
0.174406
0.177421
0.180438
0.183457
0.186477
0.189497
0.192516
0.195536
0.198557
0.20158
0.204606
0.207639
0.210682
0.21374
0.216815
0.219916
0.223048
0.22622
0.22944
0.23272
0.236069
0.239503
0.243037
0.246691
0.250489
0.254457
0.258634
0.263066
0.267817
0.272973
0.278655
0.28504
0.292391
0.301112
0.311854
0.325697
0.344481
0.371267
0.410121
0.461501
0.511993
0.543416
0.556422
0.560702
0.561983
0.562353
0.562458
0.562488
0.562497
0.562499
0.5625
0.5625
0.5625
0.5625
0.5625
0.5625
0.5625
0.5625
0.5625
0.5625
0.5625
0.5625
0.5625
0.5625
0.5625
0.5625
0.5625
0.5625
0.5625
0.5625
0.5625
0.5625
0.5625
0.5625
0.5625
0.5625
0.5625
0.5625
0.5625
0.5625
0.5625
0.5625
0.5625
0.5625
0.5625
0.5625
0.5625
0.5625
0.5625
0.5625
0.5625
0.5625
0.5625
0.5625
0.5625
0.5625
6.93457e-05
0.000252969
0.000841883
0.00206361
0.00392513
0.00631878
0.00913625
0.012295
0.0157323
0.0193972
0.0232461
0.02724
0.0313427
0.0355213
0.0397461
0.043992
0.0482372
0.0524633
0.0566552
0.0608021
0.0648978
0.068937
0.0729136
0.0768221
0.0806593
0.0844244
0.0881176
0.0917391
0.09529
0.0987729
0.102193
0.105553
0.108858
0.112111
0.115317
0.118479
0.121603
0.124693
0.127752
0.130786
0.133798
0.136794
0.139775
0.142747
0.145713
0.148677
0.151641
0.154607
0.157577
0.160553
0.163536
0.166527
0.169527
0.172534
0.175547
0.178567
0.181592
0.184621
0.187653
0.190687
0.193723
0.196761
0.199802
0.202846
0.205896
0.208954
0.212023
0.215108
0.218215
0.221349
0.224518
0.22773
0.230996
0.234326
0.237732
0.24123
0.244839
0.248578
0.252474
0.256558
0.260872
0.265469
0.270422
0.275831
0.281839
0.288654
0.296591
0.306141
0.318101
0.333811
0.355544
0.386861
0.431233
0.484318
0.527834
0.550397
0.55877
0.561408
0.562187
0.562411
0.562475
0.562493
0.562498
0.562499
0.5625
0.5625
0.5625
0.5625
0.5625
0.5625
0.5625
0.5625
0.5625
0.5625
0.5625
0.5625
0.5625
0.5625
0.5625
0.5625
0.5625
0.5625
0.5625
0.5625
0.5625
0.5625
0.5625
0.5625
0.5625
0.5625
0.5625
0.5625
0.5625
0.5625
0.5625
0.5625
0.5625
0.5625
0.5625
0.5625
0.5625
0.5625
0.5625
0.5625
0.5625
0.5625
0.5625
0.5625
0.5625
0.5625
0.000549904
0.00105322
0.00204415
0.00358735
0.00563933
0.00812609
0.0109802
0.0141455
0.0175745
0.0212247
0.025057
0.0290345
0.0331224
0.0372882
0.0415031
0.0457419
0.0499827
0.0542068
0.0583991
0.0625493
0.0666505
0.0706951
0.0746758
0.0785867
0.0824245
0.0861878
0.0898761
0.0934896
0.0970302
0.100501
0.103908
0.107253
0.11054
0.113774
0.116958
0.120099
0.123199
0.126263
0.129297
0.132304
0.13529
0.138257
0.141211
0.144157
0.147098
0.150038
0.152979
0.155925
0.158877
0.161839
0.164811
0.167794
0.170789
0.173793
0.176808
0.179833
0.182865
0.185905
0.188949
0.191998
0.195052
0.198109
0.20117
0.204236
0.207308
0.210391
0.213486
0.216598
0.219734
0.222901
0.226105
0.229356
0.232664
0.236042
0.239503
0.243063
0.246743
0.250565
0.254558
0.258756
0.263208
0.267972
0.273134
0.278811
0.285171
0.292461
0.301062
0.31158
0.325009
0.343036
0.368471
0.405225
0.454702
0.505927
0.540157
0.555181
0.560301
0.561862
0.562318
0.562449
0.562486
0.562496
0.562499
0.5625
0.5625
0.5625
0.5625
0.5625
0.5625
0.5625
0.5625
0.5625
0.5625
0.5625
0.5625
0.5625
0.5625
0.5625
0.5625
0.5625
0.5625
0.5625
0.5625
0.5625
0.5625
0.5625
0.5625
0.5625
0.5625
0.5625
0.5625
0.5625
0.5625
0.5625
0.5625
0.5625
0.5625
0.5625
0.5625
0.5625
0.5625
0.5625
0.5625
0.5625
0.5625
0.5625
0.5625
0.5625
0.5625
0.5625
0.00180282
0.00259403
0.00386081
0.00559562
0.00775607
0.0102939
0.0131644
0.0163268
0.0197428
0.0233759
0.0271903
0.0311509
0.0352238
0.0393774
0.0435833
0.0478164
0.0520545
0.0562787
0.0604741
0.0646304
0.0687389
0.0727897
0.0767744
0.0806867
0.0845229
0.0882809
0.0919597
0.0955603
0.0990854
0.102539
0.105925
0.109247
0.112508
0.115714
0.11887
0.121979
0.125046
0.128076
0.131074
0.134044
0.136992
0.139922
0.142839
0.145749
0.148655
0.151562
0.154472
0.157391
0.16032
0.163262
0.166218
0.169189
0.172176
0.175177
0.178192
0.181221
0.184262
0.187312
0.190371
0.193437
0.196509
0.199586
0.202669
0.205758
0.208854
0.211961
0.215082
0.218222
0.221386
0.224584
0.227821
0.231109
0.234459
0.237884
0.241399
0.245021
0.248772
0.252678
0.256769
0.261084
0.265678
0.27062
0.276008
0.28198
0.288733
0.296568
0.305955
0.317648
0.332915
0.353901
0.384019
0.426901
0.479472
0.524507
0.548928
0.558264
0.561252
0.562142
0.562399
0.562472
0.562492
0.562498
0.562499
0.5625
0.5625
0.5625
0.5625
0.5625
0.5625
0.5625
0.5625
0.5625
0.5625
0.5625
0.5625
0.5625
0.5625
0.5625
0.5625
0.5625
0.5625
0.5625
0.5625
0.5625
0.5625
0.5625
0.5625
0.5625
0.5625
0.5625
0.5625
0.5625
0.5625
0.5625
0.5625
0.5625
0.5625
0.5625
0.5625
0.5625
0.5625
0.5625
0.5625
0.5625
0.5625
0.5625
0.5625
0.5625
0.5625
0.5625
0.00380274
0.00476508
0.00617683
0.00800768
0.0102211
0.0127813
0.0156549
0.0188089
0.0222108
0.0258277
0.029626
0.0335719
0.0376327
0.0417777
0.0459786
0.0502103
0.0544502
0.0586794
0.0628832
0.0670506
0.0711698
0.075229
0.079219
0.0831327
0.0869658
0.0907156
0.0943816
0.0979655
0.10147
0.1049
0.108258
0.111549
0.114777
0.117948
0.121066
0.124134
0.127159
0.130144
0.133096
0.136019
0.138919
0.1418
0.144669
0.147532
0.150393
0.153258
0.156129
0.159013
0.161911
0.164827
0.167762
0.170717
0.173693
0.176688
0.179704
0.182737
0.185786
0.188849
0.191924
0.195009
0.198103
0.201203
0.20431
0.207424
0.210546
0.213679
0.216827
0.219994
0.223187
0.226415
0.229686
0.233011
0.236403
0.239875
0.243444
0.247129
0.250954
0.254946
0.259139
0.26358
0.268328
0.273464
0.279103
0.285409
0.292621
0.301109
0.311458
0.324635
0.342275
0.367116
0.403052
0.451873
0.503481
0.538866
0.554702
0.560151
0.56182
0.562307
0.562446
0.562485
0.562496
0.562499
0.5625
0.5625
0.5625
0.5625
0.5625
0.5625
0.5625
0.5625
0.5625
0.5625
0.5625
0.5625
0.5625
0.5625
0.5625
0.5625
0.5625
0.5625
0.5625
0.5625
0.5625
0.5625
0.5625
0.5625
0.5625
0.5625
0.5625
0.5625
0.5625
0.5625
0.5625
0.5625
0.5625
0.5625
0.5625
0.5625
0.5625
0.5625
0.5625
0.5625
0.5625
0.5625
0.5625
0.5625
0.5625
0.5625
0.5625
0.5625
0.00634973
0.00739873
0.0088771
0.01075
0.0129846
0.0155511
0.018421
0.0215656
0.0249554
0.0285598
0.0323468
0.0362838
0.040339
0.0444821
0.0486851
0.0529226
0.0571719
0.0614141
0.0656349
0.0698202
0.0739554
0.0780273
0.0820255
0.0859421
0.0897719
0.0935123
0.0971631
0.100726
0.104205
0.107604
0.110927
0.11418
0.117368
0.120495
0.123566
0.126585
0.129558
0.132489
0.135383
0.138247
0.141086
0.143908
0.146718
0.149522
0.152327
0.155138
0.157961
0.1608
0.163659
0.166541
0.169449
0.172384
0.175346
0.178334
0.181349
0.184387
0.187446
0.190525
0.193619
0.196727
0.199845
0.202973
0.206108
0.20925
0.212402
0.215563
0.218739
0.221936
0.225159
0.228417
0.231722
0.235085
0.238519
0.24204
0.245666
0.249418
0.253321
0.257406
0.261711
0.266288
0.271208
0.276565
0.282495
0.289195
0.29696
0.306255
0.317827
0.332938
0.353729
0.383624
0.426331
0.478948
0.524239
0.548851
0.558252
0.561254
0.562145
0.5624
0.562472
0.562492
0.562498
0.562499
0.5625
0.5625
0.5625
0.5625
0.5625
0.5625
0.5625
0.5625
0.5625
0.5625
0.5625
0.5625
0.5625
0.5625
0.5625
0.5625
0.5625
0.5625
0.5625
0.5625
0.5625
0.5625
0.5625
0.5625
0.5625
0.5625
0.5625
0.5625
0.5625
0.5625
0.5625
0.5625
0.5625
0.5625
0.5625
0.5625
0.5625
0.5625
0.5625
0.5625
0.5625
0.5625
0.5625
0.5625
0.5625
0.5625
0.5625
0.5625
0.00927527
0.0103664
0.011873
0.0137616
0.0160026
0.0185687
0.0214342
0.0245725
0.0279559
0.0315552
0.0353393
0.0392767
0.043336
0.0474875
0.0517031
0.0559571
0.0602269
0.0644946
0.0687436
0.0729562
0.0771155
0.0812069
0.0852184
0.0891415
0.0929701
0.0967012
0.100335
0.103873
0.10732
0.110681
0.113963
0.11717
0.12031
0.123386
0.126401
0.129362
0.132272
0.135138
0.137963
0.140756
0.143522
0.14627
0.149007
0.151739
0.154474
0.15722
0.159981
0.162764
0.165575
0.168415
0.171289
0.174198
0.177143
0.180122
0.183135
0.186179
0.189252
0.192349
0.195466
0.198602
0.201751
0.204911
0.20808
0.211257
0.214442
0.217636
0.220844
0.224072
0.227327
0.230618
0.233958
0.237361
0.240841
0.244416
0.248104
0.251929
0.255918
0.260106
0.264536
0.26927
0.274388
0.280004
0.286281
0.293462
0.301918
0.312245
0.325428
0.343143
0.368204
0.404586
0.453914
0.5054
0.539974
0.555151
0.560306
0.56187
0.562323
0.562451
0.562487
0.562496
0.562499
0.5625
0.5625
0.5625
0.5625
0.5625
0.5625
0.5625
0.5625
0.5625
0.5625
0.5625
0.5625
0.5625
0.5625
0.5625
0.5625
0.5625
0.5625
0.5625
0.5625
0.5625
0.5625
0.5625
0.5625
0.5625
0.5625
0.5625
0.5625
0.5625
0.5625
0.5625
0.5625
0.5625
0.5625
0.5625
0.5625
0.5625
0.5625
0.5625
0.5625
0.5625
0.5625
0.5625
0.5625
0.5625
0.5625
0.5625
0.5625
0.5625
0.0124658
0.013578
0.0150968
0.0169915
0.0192348
0.0218017
0.0246676
0.0278072
0.0311942
0.0347997
0.0385935
0.0425446
0.0466219
0.0507957
0.055038
0.0593233
0.0636303
0.0679398
0.0722313
0.0764841
0.0806792
0.0848003
0.0888341
0.0927703
0.0966018
0.100325
0.10394
0.107449
0.110858
0.114175
0.117408
0.120563
0.123645
0.126661
0.129613
0.132506
0.135344
0.138132
0.140876
0.143584
0.146262
0.14892
0.151567
0.154211
0.156861
0.159525
0.162211
0.164925
0.167674
0.170462
0.173293
0.17617
0.179093
0.182061
0.185073
0.188125
0.191213
0.194333
0.197481
0.200652
0.203839
0.20704
0.210252
0.213471
0.216696
0.21993
0.223175
0.226438
0.229727
0.233054
0.236434
0.239881
0.243412
0.247046
0.250804
0.254714
0.258802
0.263109
0.267686
0.272604
0.277959
0.283889
0.290594
0.298381
0.307731
0.319431
0.334809
0.356138
0.387013
0.431042
0.484091
0.527772
0.550421
0.558801
0.561428
0.562198
0.562416
0.562477
0.562494
0.562498
0.5625
0.5625
0.5625
0.5625
0.5625
0.5625
0.5625
0.5625
0.5625
0.5625
0.5625
0.5625
0.5625
0.5625
0.5625
0.5625
0.5625
0.5625
0.5625
0.5625
0.5625
0.5625
0.5625
0.5625
0.5625
0.5625
0.5625
0.5625
0.5625
0.5625
0.5625
0.5625
0.5625
0.5625
0.5625
0.5625
0.5625
0.5625
0.5625
0.5625
0.5625
0.5625
0.5625
0.5625
0.5625
0.5625
0.5625
0.5625
0.5625
0.5625
0.0158417
0.0169666
0.0184935
0.0203945
0.0226444
0.0252194
0.028096
0.03125
0.0346551
0.0382831
0.0421037
0.0460859
0.0501992
0.0544137
0.0587019
0.0630397
0.0674059
0.0717771
0.0761295
0.08044
0.0846874
0.0888536
0.0929233
0.0968839
0.100726
0.104446
0.108042
0.111518
0.114884
0.118149
0.121323
0.124416
0.127434
0.130381
0.133262
0.136078
0.138833
0.141531
0.144178
0.146783
0.149355
0.151904
0.154441
0.156978
0.159522
0.162085
0.164676
0.167305
0.169977
0.1727
0.175478
0.178315
0.181211
0.184165
0.187175
0.190237
0.193345
0.196496
0.199681
0.202895
0.206133
0.209387
0.212654
0.215927
0.219204
0.222486
0.225776
0.229081
0.232409
0.235777
0.239201
0.242698
0.246287
0.249992
0.253834
0.257841
0.262047
0.266499
0.271256
0.2764
0.282048
0.288372
0.295626
0.304208
0.314761
0.32836
0.346847
0.373299
0.411808
0.462815
0.512822
0.543791
0.556566
0.560759
0.562007
0.562363
0.562463
0.56249
0.562497
0.562499
0.5625
0.5625
0.5625
0.5625
0.5625
0.5625
0.5625
0.5625
0.5625
0.5625
0.5625
0.5625
0.5625
0.5625
0.5625
0.5625
0.5625
0.5625
0.5625
0.5625
0.5625
0.5625
0.5625
0.5625
0.5625
0.5625
0.5625
0.5625
0.5625
0.5625
0.5625
0.5625
0.5625
0.5625
0.5625
0.5625
0.5625
0.5625
0.5625
0.5625
0.5625
0.5625
0.5625
0.5625
0.5625
0.5625
0.5625
0.5625
0.5625
0.5625
0.0193415
0.0204777
0.022016
0.0239303
0.0261969
0.0287934
0.0316972
0.034884
0.0383277
0.0419995
0.0458689
0.049905
0.0540773
0.0583568
0.0627174
0.0671359
0.0715872
0.0760448
0.080482
0.0848739
0.0891974
0.0934322
0.0975597
0.101563
0.105431
0.109156
0.112737
0.116178
0.119492
0.122694
0.125798
0.128817
0.13176
0.134632
0.137432
0.140162
0.142822
0.145415
0.147947
0.150429
0.152871
0.155287
0.15769
0.160092
0.162506
0.164944
0.167417
0.169937
0.172512
0.175152
0.177863
0.180649
0.183511
0.186447
0.189456
0.19253
0.195666
0.198855
0.202089
0.205362
0.208664
0.211989
0.215327
0.218678
0.222044
0.225408
0.228758
0.232102
0.235469
0.238876
0.242343
0.245894
0.249551
0.253339
0.257283
0.261413
0.265769
0.270403
0.275386
0.280818
0.286845
0.293684
0.30167
0.311343
0.32359
0.339936
0.362981
0.396657
0.443815
0.496671
0.535425
0.55352
0.559819
0.561736
0.562287
0.562442
0.562484
0.562496
0.562499
0.5625
0.5625
0.5625
0.5625
0.5625
0.5625
0.5625
0.5625
0.5625
0.5625
0.5625
0.5625
0.5625
0.5625
0.5625
0.5625
0.5625
0.5625
0.5625
0.5625
0.5625
0.5625
0.5625
0.5625
0.5625
0.5625
0.5625
0.5625
0.5625
0.5625
0.5625
0.5625
0.5625
0.5625
0.5625
0.5625
0.5625
0.5625
0.5625
0.5625
0.5625
0.5625
0.5625
0.5625
0.5625
0.5625
0.5625
0.5625
0.5625
0.5625
0.5625
0.0229133
0.0240645
0.0256219
0.0275615
0.029861
0.0324988
0.0354524
0.038697
0.0422057
0.0459487
0.0498953
0.0540144
0.0582761
0.062653
0.0671207
0.0716524
0.0762199
0.0807946
0.0853487
0.0898557
0.0942908
0.0986299
0.10285
0.106929
0.110849
0.114598
0.118171
0.121575
0.124826
0.127947
0.130964
0.133894
0.136751
0.139537
0.142251
0.144885
0.147437
0.149908
0.152303
0.154634
0.156916
0.159166
0.161401
0.163635
0.165885
0.168165
0.170488
0.172868
0.175318
0.177851
0.180476
0.183196
0.186014
0.188929
0.191935
0.195027
0.198197
0.201436
0.204735
0.208084
0.211474
0.214893
0.218345
0.221833
0.225326
0.228807
0.232267
0.235687
0.239105
0.242555
0.246066
0.24967
0.253396
0.257273
0.261334
0.265613
0.270157
0.275024
0.280302
0.286116
0.292652
0.300198
0.309213
0.320456
0.335219
0.355727
0.385564
0.428565
0.481432
0.526145
0.549808
0.558626
0.561385
0.562189
0.562415
0.562477
0.562494
0.562498
0.5625
0.5625
0.5625
0.5625
0.5625
0.5625
0.5625
0.5625
0.5625
0.5625
0.5625
0.5625
0.5625
0.5625
0.5625
0.5625
0.5625
0.5625
0.5625
0.5625
0.5625
0.5625
0.5625
0.5625
0.5625
0.5625
0.5625
0.5625
0.5625
0.5625
0.5625
0.5625
0.5625
0.5625
0.5625
0.5625
0.5625
0.5625
0.5625
0.5625
0.5625
0.5625
0.5625
0.5625
0.5625
0.5625
0.5625
0.5625
0.5625
0.5625
0.5625
0.5625
0.0265117
0.027684
0.0292725
0.0312546
0.0336092
0.0363147
0.0393479
0.0426827
0.0462903
0.0501398
0.0541997
0.0584393
0.0628302
0.0673466
0.0719607
0.0766434
0.0813655
0.086098
0.0908134
0.0954845
0.100084
0.104583
0.108954
0.113164
0.117186
0.120996
0.124581
0.127944
0.131113
0.134126
0.137026
0.139844
0.142598
0.145289
0.147909
0.15044
0.152872
0.1552
0.157429
0.159572
0.16165
0.163688
0.165707
0.167728
0.169767
0.171841
0.173968
0.176165
0.178452
0.180844
0.183353
0.185987
0.188749
0.191634
0.194638
0.197752
0.200967
0.204272
0.207655
0.211107
0.214615
0.218166
0.221806
0.225481
0.229166
0.232834
0.236455
0.240009
0.243507
0.247024
0.2506
0.254277
0.258096
0.262094
0.266309
0.270783
0.27557
0.280747
0.286423
0.292762
0.300014
0.308582
0.319129
0.332784
0.351503
0.378533
0.417959
0.469248
0.517465
0.545942
0.557316
0.56099
0.562075
0.562383
0.562468
0.562492
0.562498
0.562499
0.5625
0.5625
0.5625
0.5625
0.5625
0.5625
0.5625
0.5625
0.5625
0.5625
0.5625
0.5625
0.5625
0.5625
0.5625
0.5625
0.5625
0.5625
0.5625
0.5625
0.5625
0.5625
0.5625
0.5625
0.5625
0.5625
0.5625
0.5625
0.5625
0.5625
0.5625
0.5625
0.5625
0.5625
0.5625
0.5625
0.5625
0.5625
0.5625
0.5625
0.5625
0.5625
0.5625
0.5625
0.5625
0.5625
0.5625
0.5625
0.5625
0.5625
0.5625
0.5625
0.0300949
0.0312973
0.0329324
0.0349797
0.0374183
0.0402259
0.0433773
0.0468439
0.0505942
0.0545955
0.0588155
0.0632244
0.0677948
0.0724976
0.0773034
0.0821833
0.0871095
0.0920553
0.0969949
0.101902
0.106747
0.111498
0.116116
0.120637
0.125085
0.129269
0.132957
0.136284
0.139324
0.14215
0.144845
0.14747
0.150057
0.152608
0.155099
0.157494
0.159761
0.161885
0.163868
0.165731
0.167505
0.169228
0.170934
0.172648
0.174388
0.176173
0.178024
0.179963
0.182018
0.184211
0.186561
0.189075
0.191757
0.194601
0.1976
0.200741
0.204014
0.207405
0.210901
0.214491
0.218162
0.221964
0.225859
0.229829
0.233845
0.237856
0.241783
0.245552
0.249165
0.252772
0.256433
0.26021
0.264159
0.268329
0.272766
0.277519
0.282658
0.288283
0.29454
0.301659
0.310002
0.320167
0.333176
0.35081
0.376057
0.412928
0.462159
0.511411
0.542858
0.556182
0.56063
0.561967
0.562352
0.562459
0.562489
0.562497
0.562499
0.5625
0.5625
0.5625
0.5625
0.5625
0.5625
0.5625
0.5625
0.5625
0.5625
0.5625
0.5625
0.5625
0.5625
0.5625
0.5625
0.5625
0.5625
0.5625
0.5625
0.5625
0.5625
0.5625
0.5625
0.5625
0.5625
0.5625
0.5625
0.5625
0.5625
0.5625
0.5625
0.5625
0.5625
0.5625
0.5625
0.5625
0.5625
0.5625
0.5625
0.5625
0.5625
0.5625
0.5625
0.5625
0.5625
0.5625
0.5625
0.5625
0.5625
0.5625
0.5625
0.5625
0.0336246
0.034868
0.0365698
0.0387113
0.0412711
0.0442253
0.0475451
0.0511979
0.055148
0.0593599
0.0638006
0.0684395
0.0732455
0.0781885
0.0832404
0.0883762
0.0935725
0.0988084
0.104064
0.109315
0.114535
0.11969
0.125084
0.130718
0.136351
0.141764
0.146543
0.149807
0.152528
0.154868
0.157038
0.159183
0.161381
0.163636
0.16589
0.168049
0.170025
0.171775
0.173294
0.174616
0.175801
0.176927
0.178052
0.179214
0.180432
0.181723
0.183107
0.184619
0.186294
0.188166
0.190259
0.192583
0.195137
0.197911
0.200892
0.204062
0.207405
0.210905
0.214548
0.218325
0.222222
0.226344
0.230649
0.235145
0.239824
0.244609
0.249277
0.25353
0.257344
0.261075
0.264835
0.268729
0.272848
0.277262
0.282028
0.287206
0.292886
0.299213
0.306409
0.314824
0.325021
0.337958
0.355312
0.379891
0.415411
0.462574
0.5103
0.54178
0.555648
0.560427
0.561899
0.56233
0.562453
0.562487
0.562497
0.562499
0.5625
0.5625
0.5625
0.5625
0.5625
0.5625
0.5625
0.5625
0.5625
0.5625
0.5625
0.5625
0.5625
0.5625
0.5625
0.5625
0.5625
0.5625
0.5625
0.5625
0.5625
0.5625
0.5625
0.5625
0.5625
0.5625
0.5625
0.5625
0.5625
0.5625
0.5625
0.5625
0.5625
0.5625
0.5625
0.5625
0.5625
0.5625
0.5625
0.5625
0.5625
0.5625
0.5625
0.5625
0.5625
0.5625
0.5625
0.5625
0.5625
0.5625
0.5625
0.5625
0.5625
0.5625
0.0370658
0.0383632
0.0401569
0.0424293
0.0451585
0.0483177
0.051873
0.0557845
0.0600101
0.0645096
0.069246
0.0741832
0.0792889
0.0845361
0.0899023
0.0953703
0.100927
0.106563
0.11227
0.118037
0.123848
0.130249
0.137327
0.145028
0.153426
0.161943
0.169912
0.174083
0.176158
0.177284
0.178142
0.179122
0.180442
0.182135
0.184056
0.185931
0.187478
0.188574
0.189198
0.189409
0.189345
0.189205
0.189132
0.189187
0.189383
0.18972
0.190218
0.19092
0.191885
0.193164
0.19479
0.196769
0.199088
0.201725
0.204651
0.207838
0.211258
0.214893
0.218727
0.222753
0.227045
0.23165
0.236629
0.242099
0.248208
0.254917
0.261578
0.266982
0.271166
0.275014
0.278795
0.282739
0.287035
0.291812
0.297144
0.303095
0.309804
0.31751
0.32659
0.337628
0.351559
0.369932
0.395217
0.430269
0.474235
0.516437
0.543784
0.55609
0.560493
0.5619
0.562326
0.56245
0.562486
0.562496
0.562499
0.5625
0.5625
0.5625
0.5625
0.5625
0.5625
0.5625
0.5625
0.5625
0.5625
0.5625
0.5625
0.5625
0.5625
0.5625
0.5625
0.5625
0.5625
0.5625
0.5625
0.5625
0.5625
0.5625
0.5625
0.5625
0.5625
0.5625
0.5625
0.5625
0.5625
0.5625
0.5625
0.5625
0.5625
0.5625
0.5625
0.5625
0.5625
0.5625
0.5625
0.5625
0.5625
0.5625
0.5625
0.5625
0.5625
0.5625
0.5625
0.5625
0.5625
0.5625
0.5625
0.5625
0.5625
0.5625
0.0403998
0.0417765
0.0436985
0.046147
0.0490957
0.0525102
0.0563475
0.060609
0.0652817
0.0701665
0.0752846
0.0805987
0.0860801
0.0917097
0.0974774
0.103381
0.109425
0.115623
0.121994
0.12856
0.135852
0.144662
0.155164
0.167414
0.181865
0.196162
0.21172
0.217434
0.2182
0.216158
0.213834
0.21216
0.211717
0.212656
0.21464
0.218204
0.219488
0.219641
0.218622
0.216523
0.21367
0.21072
0.208087
0.205879
0.204043
0.202506
0.201254
0.200352
0.199913
0.200033
0.200757
0.202075
0.203945
0.206306
0.209098
0.212264
0.21576
0.219555
0.223634
0.228001
0.232805
0.238148
0.244268
0.251618
0.260875
0.272272
0.284107
0.291882
0.296683
0.300333
0.303688
0.307323
0.311725
0.31722
0.323939
0.331913
0.341396
0.352858
0.366948
0.384447
0.406222
0.433086
0.465213
0.499995
0.529917
0.548703
0.557484
0.560838
0.561979
0.562343
0.562454
0.562487
0.562496
0.562499
0.5625
0.5625
0.5625
0.5625
0.5625
0.5625
0.5625
0.5625
0.5625
0.5625
0.5625
0.5625
0.5625
0.5625
0.5625
0.5625
0.5625
0.5625
0.5625
0.5625
0.5625
0.5625
0.5625
0.5625
0.5625
0.5625
0.5625
0.5625
0.5625
0.5625
0.5625
0.5625
0.5625
0.5625
0.5625
0.5625
0.5625
0.5625
0.5625
0.5625
0.5625
0.5625
0.5625
0.5625
0.5625
0.5625
0.5625
0.5625
0.5625
0.5625
0.5625
0.5625
0.5625
0.5625
0.5625
0.5625
0.0436062
0.0450974
0.0472008
0.0498967
0.0531533
0.056925
0.0611565
0.0658294
0.0709047
0.0761887
0.0820922
0.0878988
0.0938479
0.0999583
0.106242
0.112724
0.119443
0.126456
0.133842
0.141716
0.152264
0.166084
0.183933
0.203462
0.227228
0.245277
0.268507
0.274025
0.273779
0.26612
0.259053
0.253716
0.251254
0.252345
0.25986
0.271502
0.276151
0.275986
0.27277
0.266393
0.257377
0.248306
0.240538
0.234138
0.228678
0.223776
0.219284
0.215307
0.212134
0.21001
0.209016
0.209101
0.210141
0.211988
0.214509
0.217591
0.221153
0.22514
0.229539
0.234373
0.239887
0.246342
0.254341
0.265128
0.280718
0.301922
0.324929
0.335773
0.341388
0.343449
0.345121
0.347618
0.352299
0.360243
0.371849
0.386531
0.404487
0.425725
0.449315
0.473278
0.495541
0.515051
0.531793
0.545459
0.554507
0.559267
0.561329
0.562107
0.562375
0.562462
0.562489
0.562497
0.562499
0.5625
0.5625
0.5625
0.5625
0.5625
0.5625
0.5625
0.5625
0.5625
0.5625
0.5625
0.5625
0.5625
0.5625
0.5625
0.5625
0.5625
0.5625
0.5625
0.5625
0.5625
0.5625
0.5625
0.5625
0.5625
0.5625
0.5625
0.5625
0.5625
0.5625
0.5625
0.5625
0.5625
0.5625
0.5625
0.5625
0.5625
0.5625
0.5625
0.5625
0.5625
0.5625
0.5625
0.5625
0.5625
0.5625
0.5625
0.5625
0.5625
0.5625
0.5625
0.5625
0.5625
0.5625
0.5625
0.5625
0.5625
0.0466662
0.0483159
0.0506695
0.0537095
0.0573974
0.0616694
0.0664477
0.071676
0.0772759
0.083107
0.0894721
0.0959682
0.102917
0.109649
0.116611
0.123884
0.131573
0.139825
0.148862
0.160703
0.177157
0.201324
0.231522
0.255877
0.286706
0.29522
0.303862
0.380959
0.40392
0.293034
0.287423
0.28275
0.280955
0.284467
0.299251
0.320583
0.328333
0.331547
0.330863
0.324455
0.309799
0.294107
0.281467
0.27152
0.262855
0.254425
0.245822
0.237301
0.229724
0.223888
0.220076
0.218178
0.21791
0.218964
0.221069
0.224015
0.227655
0.231901
0.236735
0.242223
0.248725
0.256795
0.267705
0.284242
0.310994
0.347936
0.385547
0.397514
0.404886
0.402379
0.401427
0.402437
0.409218
0.425574
0.454937
0.480562
0.503664
0.522175
0.535585
0.544542
0.550236
0.553861
0.556516
0.559051
0.560818
0.561799
0.562241
0.562412
0.562472
0.562491
0.562497
0.562499
0.5625
0.5625
0.5625
0.5625
0.5625
0.5625
0.5625
0.5625
0.5625
0.5625
0.5625
0.5625
0.5625
0.5625
0.5625
0.5625
0.5625
0.5625
0.5625
0.5625
0.5625
0.5625
0.5625
0.5625
0.5625
0.5625
0.5625
0.5625
0.5625
0.5625
0.5625
0.5625
0.5625
0.5625
0.5625
0.5625
0.5625
0.5625
0.5625
0.5625
0.5625
0.5625
0.5625
0.5625
0.5625
0.5625
0.5625
0.5625
0.5625
0.5625
0.5625
0.5625
0.5625
0.5625
0.5625
0.5625
0.5625
0.5625
0.0495681
0.0514309
0.054126
0.057647
0.0619481
0.066931
0.0724632
0.0784294
0.0847199
0.0912521
0.0982026
0.105308
0.11292
0.121337
0.129234
0.137647
0.146822
0.157115
0.169118
0.188608
0.215912
0.257936
0.301158
0.315451
0.329281
0.517534
0.561524
0.561502
0.559423
0.546346
0.393861
0.303775
0.302314
0.309393
0.336173
0.349946
0.480879
0.556466
0.53568
0.418841
0.326877
0.316957
0.308932
0.302535
0.296028
0.287933
0.277374
0.264542
0.251472
0.240725
0.233215
0.228781
0.226898
0.227015
0.228677
0.231542
0.235371
0.240033
0.245508
0.251948
0.259822
0.270164
0.28529
0.310593
0.354569
0.40592
0.432606
0.52662
0.541634
0.444277
0.449309
0.452605
0.466816
0.497825
0.534253
0.547886
0.554598
0.558092
0.559973
0.560941
0.561407
0.561556
0.561527
0.561857
0.562152
0.562349
0.562444
0.562481
0.562494
0.562498
0.562499
0.5625
0.5625
0.5625
0.5625
0.5625
0.5625
0.5625
0.5625
0.5625
0.5625
0.5625
0.5625
0.5625
0.5625
0.5625
0.5625
0.5625
0.5625
0.5625
0.5625
0.5625
0.5625
0.5625
0.5625
0.5625
0.5625
0.5625
0.5625
0.5625
0.5625
0.5625
0.5625
0.5625
0.5625
0.5625
0.5625
0.5625
0.5625
0.5625
0.5625
0.5625
0.5625
0.5625
0.5625
0.5625
0.5625
0.5625
0.5625
0.5625
0.5625
0.5625
0.5625
0.5625
0.5625
0.5625
0.5625
0.5625
0.5625
0.5625
0.0523065
0.0544491
0.0576107
0.0618175
0.0670161
0.0730316
0.0796143
0.0865684
0.0937685
0.101175
0.108884
0.116795
0.12521
0.134529
0.145187
0.15542
0.167143
0.181316
0.20189
0.239023
0.278839
0.340656
0.361877
0.518021
0.561612
0.562351
0.562496
0.562497
0.562491
0.562438
0.561075
0.450406
0.331612
0.341957
0.378667
0.550945
0.562443
0.562491
0.562409
0.561024
0.434447
0.333741
0.33039
0.329258
0.327382
0.32268
0.312903
0.296114
0.275191
0.258203
0.246591
0.239593
0.236198
0.235548
0.236987
0.240037
0.24437
0.249802
0.25633
0.264272
0.27417
0.287706
0.308585
0.346377
0.415112
0.460052
0.55644
0.56248
0.562472
0.561757
0.551528
0.498539
0.516611
0.546476
0.558915
0.562394
0.5625
0.562482
0.5625
0.5625
0.562498
0.562473
0.562259
0.562369
0.562419
0.562466
0.562488
0.562496
0.562499
0.5625
0.5625
0.5625
0.5625
0.5625
0.5625
0.5625
0.5625
0.5625
0.5625
0.5625
0.5625
0.5625
0.5625
0.5625
0.5625
0.5625
0.5625
0.5625
0.5625
0.5625
0.5625
0.5625
0.5625
0.5625
0.5625
0.5625
0.5625
0.5625
0.5625
0.5625
0.5625
0.5625
0.5625
0.5625
0.5625
0.5625
0.5625
0.5625
0.5625
0.5625
0.5625
0.5625
0.5625
0.5625
0.5625
0.5625
0.5625
0.5625
0.5625
0.5625
0.5625
0.5625
0.5625
0.5625
0.5625
0.5625
0.5625
0.5625
0.5625
0.5625
0.0548814
0.0573811
0.0611817
0.066397
0.0729703
0.0805603
0.0886556
0.0969621
0.105365
0.113874
0.122588
0.131578
0.141174
0.151829
0.164515
0.18009
0.197168
0.220856
0.26982
0.343512
0.378871
0.436756
0.559393
0.562315
0.562495
0.562499
0.5625
0.5625
0.5625
0.5625
0.562495
0.558562
0.503859
0.390364
0.52515
0.561786
0.562497
0.5625
0.5625
0.562495
0.560431
0.394363
0.481326
0.516858
0.50667
0.42972
0.365691
0.302814
0.284299
0.268431
0.256362
0.248547
0.244594
0.243839
0.245648
0.249512
0.255074
0.262155
0.27074
0.281493
0.295159
0.313521
0.34166
0.394899
0.485098
0.560744
0.562494
0.5625
0.5625
0.562499
0.562476
0.55692
0.548629
0.560084
0.562213
0.562492
0.5625
0.5625
0.5625
0.5625
0.5625
0.5625
0.5625
0.562497
0.56248
0.562493
0.562498
0.562499
0.5625
0.5625
0.5625
0.5625
0.5625
0.5625
0.5625
0.5625
0.5625
0.5625
0.5625
0.5625
0.5625
0.5625
0.5625
0.5625
0.5625
0.5625
0.5625
0.5625
0.5625
0.5625
0.5625
0.5625
0.5625
0.5625
0.5625
0.5625
0.5625
0.5625
0.5625
0.5625
0.5625
0.5625
0.5625
0.5625
0.5625
0.5625
0.5625
0.5625
0.5625
0.5625
0.5625
0.5625
0.5625
0.5625
0.5625
0.5625
0.5625
0.5625
0.5625
0.5625
0.5625
0.5625
0.5625
0.5625
0.5625
0.5625
0.5625
0.5625
0.5625
0.5625
0.0572935
0.0602261
0.0648963
0.0716501
0.0804925
0.0907227
0.101149
0.111406
0.121448
0.131403
0.141511
0.15206
0.163544
0.176672
0.192783
0.215846
0.250272
0.305797
0.412683
0.494307
0.558419
0.561499
0.562481
0.562499
0.5625
0.5625
0.5625
0.5625
0.5625
0.5625
0.5625
0.562481
0.556534
0.453487
0.551326
0.562379
0.5625
0.5625
0.5625
0.5625
0.544784
0.466611
0.553153
0.562096
0.561697
0.529678
0.440095
0.308283
0.289759
0.274748
0.263041
0.255373
0.251742
0.251747
0.254942
0.261029
0.269901
0.281682
0.29543
0.312745
0.335795
0.368212
0.416516
0.487368
0.543921
0.562278
0.5625
0.5625
0.5625
0.5625
0.5625
0.562045
0.560498
0.562422
0.562488
0.562499
0.5625
0.5625
0.5625
0.5625
0.5625
0.5625
0.5625
0.5625
0.562498
0.562499
0.5625
0.5625
0.5625
0.5625
0.5625
0.5625
0.5625
0.5625
0.5625
0.5625
0.5625
0.5625
0.5625
0.5625
0.5625
0.5625
0.5625
0.5625
0.5625
0.5625
0.5625
0.5625
0.5625
0.5625
0.5625
0.5625
0.5625
0.5625
0.5625
0.5625
0.5625
0.5625
0.5625
0.5625
0.5625
0.5625
0.5625
0.5625
0.5625
0.5625
0.5625
0.5625
0.5625
0.5625
0.5625
0.5625
0.5625
0.5625
0.5625
0.5625
0.5625
0.5625
0.5625
0.5625
0.5625
0.5625
0.5625
0.5625
0.5625
0.5625
0.5625
0.5625
0.5625
0.5625
0.0595374
0.0629362
0.0687283
0.0779
0.0909616
0.106533
0.121171
0.134654
0.147001
0.158888
0.171047
0.184138
0.199104
0.217399
0.241715
0.279326
0.35681
0.477501
0.550866
0.561954
0.562478
0.562493
0.5625
0.5625
0.5625
0.5625
0.5625
0.5625
0.5625
0.5625
0.5625
0.562499
0.562187