/*--------------------------------*- C++ -*----------------------------------*\
| =========                 |                                                 |
| \\      /  F ield         | OpenFOAM: The Open Source CFD Toolbox           |
|  \\    /   O peration     | Version:  2.1.0                                 |
|   \\  /    A nd           | Web:      www.OpenFOAM.org                      |
|    \\/     M anipulation  |                                                 |
\*---------------------------------------------------------------------------*/
FoamFile
{
    version     2.0;
    format      ascii;
    class       volScalarField;
    location    "20075";
    object      kr_w;
}
// * * * * * * * * * * * * * * * * * * * * * * * * * * * * * * * * * * * * * //

dimensions      [0 0 0 0 0 0 0];

internalField   nonuniform List<scalar> 
15000
(
0.5625
0.56248
0.561342
0.553477
0.534575
0.508364
0.480202
0.452961
0.427657
0.404499
0.383406
0.364206
0.346709
0.330741
0.31614
0.302764
0.290485
0.279188
0.26877
0.259139
0.250213
0.241912
0.234169
0.226926
0.220135
0.213753
0.207742
0.202066
0.196693
0.191598
0.186757
0.182145
0.177742
0.173529
0.169488
0.165607
0.16187
0.158265
0.154781
0.151407
0.148136
0.144957
0.141864
0.13885
0.13591
0.133037
0.130227
0.127477
0.124784
0.122145
0.119558
0.117022
0.114535
0.112096
0.109705
0.107361
0.105064
0.102814
0.100609
0.0984504
0.0963359
0.0942647
0.092235
0.0902452
0.0882933
0.0863773
0.084494
0.0826407
0.0808145
0.0790119
0.0772296
0.0754635
0.0737097
0.0719639
0.0702214
0.0684775
0.0667269
0.0649629
0.0631789
0.0613667
0.0595164
0.0576157
0.0556479
0.0535915
0.0514173
0.0490854
0.0465393
0.0436982
0.0404446
0.0366073
0.0319454
0.0261684
0.0191371
0.0115171
0.00529902
0.00190764
0.000594859
0.000174437
4.99554e-05
1.41673e-05
4.00057e-06
1.1282e-06
3.18482e-07
9.01944e-08
2.56826e-08
7.36986e-09
2.13633e-09
6.27079e-10
1.8685e-10
5.66575e-11
1.75259e-11
5.54348e-12
1.7969e-12
5.98106e-13
2.04795e-13
7.22635e-14
2.63285e-14
9.92239e-15
3.88005e-15
1.59393e-15
6.60434e-16
2.76239e-16
8.57294e-17
3.17516e-18
0
0
0
0
0
0
0
0
0
0
0
0
0
0
0
0
0
0
0
0
0
0
0
0
0
0
0.56248
0.562076
0.558357
0.545805
0.524023
0.497595
0.470455
0.444494
0.42037
0.398208
0.37793
0.359388
0.342428
0.326897
0.312658
0.299581
0.287551
0.276461
0.266219
0.256739
0.247941
0.239749
0.2321
0.224941
0.218226
0.211912
0.205963
0.200343
0.195025
0.189984
0.185193
0.180628
0.17627
0.1721
0.168102
0.164262
0.160565
0.156998
0.153553
0.150216
0.146981
0.143837
0.140778
0.137797
0.134887
0.132043
0.129262
0.126539
0.123871
0.121256
0.11869
0.116173
0.113703
0.111279
0.108901
0.106569
0.104282
0.10204
0.0998423
0.0976889
0.0955784
0.0935096
0.0914813
0.089492
0.0875397
0.0856222
0.0837362
0.0818794
0.080049
0.0782409
0.0764515
0.0746767
0.0729124
0.0711543
0.0693977
0.0676372
0.0658669
0.0640803
0.0622695
0.0604263
0.0585389
0.0565933
0.0545711
0.052448
0.050191
0.0477547
0.0450746
0.0420591
0.0385752
0.0344329
0.0293795
0.0231653
0.0158792
0.00869337
0.00363982
0.00123901
0.00037853
0.000110512
3.16568e-05
8.98723e-06
2.53978e-06
7.16402e-07
2.02158e-07
5.71927e-08
1.62577e-08
4.65393e-09
1.34472e-09
3.93113e-10
1.16554e-10
3.51337e-11
1.07934e-11
3.38739e-12
1.08856e-12
3.58997e-13
1.21787e-13
4.26012e-14
1.54154e-14
5.7788e-15
2.24802e-15
9.08097e-16
3.65144e-16
1.46058e-16
3.17516e-18
0
0
0
0
0
0
0
0
0
0
0
0
0
0
0
0
0
0
0
0
0
0
0
0
0
0
0
0.561369
0.558413
0.549286
0.53189
0.508651
0.483166
0.457781
0.433595
0.411016
0.39013
0.370887
0.353185
0.336907
0.321936
0.308159
0.295465
0.283754
0.272935
0.262923
0.25364
0.245008
0.23696
0.229438
0.222394
0.215783
0.209565
0.203704
0.19817
0.192934
0.187969
0.18325
0.178754
0.174461
0.170356
0.16642
0.162639
0.159
0.15549
0.152098
0.148815
0.145629
0.142534
0.139522
0.136585
0.133718
0.130914
0.12817
0.125482
0.122846
0.12026
0.117721
0.115228
0.112779
0.110374
0.108013
0.105695
0.10342
0.101188
0.0989985
0.0968518
0.0947468
0.0926821
0.0906571
0.0886703
0.0867198
0.0848029
0.0829174
0.0810602
0.0792282
0.0774174
0.0756242
0.0738445
0.0720737
0.0703073
0.0685402
0.0667667
0.0649805
0.0631747
0.0613412
0.0594703
0.0575494
0.0555626
0.0534894
0.0513023
0.0489633
0.0464207
0.0436006
0.0403976
0.0366593
0.0321737
0.0266808
0.0200175
0.0126313
0.00620173
0.00236861
0.000768309
0.00023062
6.69754e-05
1.91527e-05
5.43078e-06
1.53228e-06
4.31242e-07
1.21326e-07
3.41937e-08
9.67425e-09
2.75363e-09
7.90263e-10
2.29196e-10
6.73322e-11
2.00842e-11
6.09754e-12
1.88883e-12
5.98502e-13
1.94501e-13
6.50083e-14
2.24357e-14
8.01411e-15
2.98148e-15
1.13988e-15
4.47698e-16
1.74634e-16
3.17516e-18
0
0
0
0
0
0
0
0
0
0
0
0
0
0
0
0
0
0
0
0
0
0
0
0
0
0
0
0
0.553745
0.546135
0.532152
0.512615
0.489978
0.466404
0.4432
0.421026
0.400161
0.380691
0.362607
0.345852
0.330351
0.316022
0.302776
0.290527
0.279191
0.268689
0.258948
0.249896
0.241463
0.233588
0.226221
0.219318
0.212836
0.206738
0.200992
0.195566
0.190433
0.185565
0.180938
0.176531
0.172324
0.168301
0.164445
0.16074
0.157176
0.153738
0.150417
0.1472
0.144079
0.141047
0.138095
0.135215
0.1324
0.129647
0.12695
0.124306
0.121709
0.119159
0.116652
0.114187
0.111764
0.109381
0.107039
0.104737
0.102476
0.100255
0.0980761
0.0959374
0.0938386
0.0917795
0.0897595
0.0877768
0.0858296
0.0839155
0.0820322
0.0801767
0.0783455
0.0765347
0.0747403
0.0729581
0.0711837
0.069412
0.0676373
0.065854
0.0640553
0.0622336
0.0603802
0.0584845
0.0565322
0.0545061
0.0523827
0.0501303
0.0477061
0.0450499
0.0420759
0.0386612
0.03463
0.0297466
0.0237644
0.0166988
0.00951101
0.00416229
0.00146603
0.000457615
0.000135316
3.9046e-05
1.11212e-05
3.14169e-06
8.82734e-07
2.47231e-07
6.91603e-08
1.93621e-08
5.43572e-09
1.53338e-09
4.35542e-10
1.24834e-10
3.61842e-11
1.06313e-11
3.17383e-12
9.6524e-13
2.99907e-13
9.55153e-14
3.12944e-14
1.0586e-14
3.72129e-15
1.37167e-15
5.11201e-16
1.84159e-16
3.17516e-18
0
0
0
0
0
0
0
0
0
0
0
0
0
0
0
0
0
0
0
0
0
0
0
0
0
0
0
0
0
0.535444
0.524904
0.509398
0.490427
0.469688
0.448465
0.427561
0.407428
0.3883
0.370278
0.353393
0.337631
0.322955
0.309313
0.296642
0.284875
0.273948
0.263796
0.254353
0.245557
0.237345
0.229667
0.222478
0.215736
0.209406
0.20345
0.197839
0.192542
0.187531
0.18278
0.178264
0.173965
0.169862
0.165939
0.162178
0.158568
0.155094
0.151744
0.148507
0.145372
0.142331
0.139375
0.136495
0.133684
0.130935
0.128243
0.125603
0.12301
0.12046
0.117952
0.115483
0.113052
0.110658
0.1083
0.10598
0.103696
0.10145
0.0992427
0.0970736
0.0949435
0.0928522
0.0907997
0.0887852
0.0868074
0.0848646
0.0829551
0.0810759
0.0792242
0.0773959
0.0755875
0.0737947
0.0720129
0.0702372
0.0684621
0.0666823
0.0648915
0.0630823
0.0612468
0.0593754
0.0574562
0.0554738
0.0534078
0.0512318
0.0489098
0.0463922
0.0436086
0.040458
0.0367955
0.0324174
0.0270694
0.0205675
0.0132615
0.00670013
0.00262488
0.000865659
0.000262317
7.65387e-05
2.19131e-05
6.20204e-06
1.74114e-06
4.85943e-07
1.35092e-07
3.74764e-08
1.03935e-08
2.88687e-09
8.04557e-10
2.25408e-10
6.3608e-11
1.81163e-11
5.21894e-12
1.52434e-12
4.5261e-13
1.37053e-13
4.25091e-14
1.35833e-14
4.51191e-15
1.56218e-15
5.52478e-16
1.93685e-16
3.17516e-18
0
0
0
0
0
0
0
0
0
0
0
0
0
0
0
0
0
0
0
0
0
0
0
0
0
0
0
0
0
0
0.510075
0.499216
0.484564
0.467447
0.449035
0.43019
0.411489
0.393296
0.37583
0.359214
0.34351
0.328739
0.314895
0.301952
0.289872
0.278606
0.268106
0.258319
0.249191
0.240665
0.232691
0.225225
0.21823
0.211669
0.205508
0.199714
0.194256
0.189105
0.184234
0.179617
0.175232
0.171057
0.167075
0.163267
0.159619
0.156118
0.15275
0.149503
0.146365
0.143327
0.14038
0.137514
0.13472
0.13199
0.129318
0.126698
0.124124
0.121592
0.119098
0.116639
0.114214
0.111821
0.10946
0.107131
0.104834
0.102571
0.100341
0.0981469
0.0959888
0.0938676
0.0917838
0.0897377
0.0877292
0.085757
0.0838198
0.0819159
0.0800422
0.0781958
0.0763726
0.0745684
0.0727793
0.071
0.0692249
0.0674491
0.0656661
0.0638691
0.0620509
0.0602029
0.0583143
0.0563715
0.0543576
0.0522494
0.0500167
0.0476173
0.044993
0.0420603
0.0386993
0.0347374
0.0299413
0.0240588
0.0170711
0.00986213
0.00437896
0.00155724
0.000488339
0.000144589
4.16549e-05
1.18146e-05
3.31555e-06
9.22854e-07
2.55241e-07
7.0264e-08
1.92834e-08
5.28436e-09
1.44828e-09
3.97613e-10
1.09527e-10
3.03229e-11
8.45247e-12
2.37685e-12
6.75811e-13
1.94819e-13
5.71275e-14
1.713e-14
5.30887e-15
1.69236e-15
5.52478e-16
1.84159e-16
3.17516e-18
0
0
0
0
0
0
0
0
0
0
0
0
0
0
0
0
0
0
0
0
0
0
0
0
0
0
0
0
0
0
0
0.482863
0.472929
0.459947
0.444946
0.428789
0.412126
0.39542
0.378994
0.363059
0.347758
0.333174
0.319356
0.306321
0.294066
0.28257
0.271805
0.261735
0.252317
0.243507
0.235257
0.227528
0.220286
0.213497
0.207129
0.201151
0.195532
0.190243
0.185255
0.180541
0.176076
0.171837
0.167804
0.163957
0.16028
0.156759
0.153382
0.150134
0.147005
0.143982
0.141057
0.138218
0.135456
0.132761
0.130126
0.127543
0.125006
0.12251
0.120048
0.117618
0.115216
0.112841
0.110493
0.108169
0.105872
0.103601
0.101359
0.0991463
0.0969655
0.094818
0.0927054
0.0906288
0.0885887
0.0865857
0.0846191
0.0826875
0.0807896
0.0789225
0.0770826
0.0752661
0.0734687
0.0716851
0.0699099
0.0681374
0.0663621
0.0645772
0.0627754
0.060949
0.0590885
0.0571822
0.0552148
0.0531667
0.0510112
0.0487135
0.046224
0.0434731
0.0403605
0.0367416
0.0324112
0.0271104
0.0206448
0.0133458
0.006755
0.00264576
0.000870809
0.000263052
7.64152e-05
2.17338e-05
6.09749e-06
1.69338e-06
4.66368e-07
1.27563e-07
3.47021e-08
9.40183e-09
2.54025e-09
6.85353e-10
1.84881e-10
4.99313e-11
1.35189e-11
3.67466e-12
1.00441e-12
2.7662e-13
7.69755e-14
2.17245e-14
6.2646e-15
1.84477e-15
5.52478e-16
1.68284e-16
3.17516e-18
0
0
0
0
0
0
0
0
0
0
0
0
0
0
0
0
0
0
0
0
0
0
0
0
0
0
0
0
0
0
0
0
0.456632
0.4479
0.436613
0.42355
0.409374
0.394608
0.379646
0.364779
0.350217
0.33611
0.322559
0.309629
0.297358
0.285757
0.274825
0.264545
0.254893
0.245836
0.237336
0.22936
0.221878
0.214862
0.208286
0.202119
0.196334
0.190902
0.185795
0.180985
0.176443
0.172146
0.168069
0.164192
0.160495
0.156964
0.153585
0.150346
0.147233
0.144236
0.141344
0.138546
0.13583
0.133186
0.130606
0.12808
0.125601
0.12316
0.120753
0.118373
0.116016
0.11368
0.111363
0.109064
0.106782
0.104519
0.102277
0.100057
0.097862
0.0956944
0.093557
0.0914515
0.0893806
0.0873454
0.0853466
0.0833844
0.0814581
0.0795664
0.0777064
0.0758743
0.0740659
0.0722768
0.0705003
0.0687307
0.066962
0.0651878
0.0634012
0.0615948
0.0597603
0.0578865
0.0559607
0.0539652
0.0518779
0.0496678
0.0472932
0.0446951
0.0417892
0.038453
0.0345099
0.0297194
0.0238223
0.0168077
0.00960821
0.00420874
0.00147889
0.000459536
0.000134976
3.85574e-05
1.0821e-05
2.99881e-06
8.22856e-07
2.23864e-07
6.04579e-08
1.62263e-08
4.33267e-09
1.15215e-09
3.05421e-10
8.07854e-11
2.13402e-11
5.63497e-12
1.4888e-12
3.94044e-13
1.04672e-13
2.79891e-14
7.58229e-15
2.05751e-15
5.52478e-16
1.30182e-16
3.17516e-18
0
0
0
0
0
0
0
0
0
0
0
0
0
0
0
0
0
0
0
0
0
0
0
0
0
0
0
0
0
0
0
0
0
0.432391
0.424772
0.414946
0.403514
0.390997
0.377828
0.36435
0.350829
0.337468
0.324419
0.311796
0.299674
0.288104
0.277112
0.266707
0.256884
0.247626
0.238907
0.230702
0.22299
0.215749
0.208958
0.202593
0.19663
0.191044
0.185809
0.180895
0.176276
0.171923
0.167809
0.163909
0.160202
0.15667
0.153298
0.150074
0.146986
0.144023
0.141173
0.138426
0.13577
0.133194
0.130687
0.128238
0.125837
0.123476
0.121147
0.118843
0.116557
0.114286
0.112025
0.109774
0.107531
0.105296
0.103071
0.100859
0.0986618
0.0964839
0.0943285
0.0921991
0.0900987
0.0880311
0.0859981
0.0840008
0.0820409
0.0801189
0.0782328
0.0763795
0.0745561
0.0727573
0.0709771
0.0692089
0.0674461
0.0656819
0.0639093
0.0621211
0.0603089
0.0584643
0.0565749
0.054626
0.0525975
0.0504631
0.0481866
0.0457178
0.0429848
0.0398834
0.0362615
0.0319039
0.0265414
0.0199883
0.0126587
0.0062247
0.00237332
0.000766777
0.000228678
6.57054e-05
1.8478e-05
5.11408e-06
1.39847e-06
3.787e-07
1.01658e-07
2.70764e-08
7.16148e-09
1.8824e-09
4.92052e-10
1.27983e-10
3.31404e-11
8.54686e-12
2.19618e-12
5.62521e-13
1.43727e-13
3.66827e-14
9.40483e-15
2.41312e-15
5.96931e-16
1.17481e-16
3.17516e-18
0
0
0
0
0
0
0
0
0
0
0
0
0
0
0
0
0
0
0
0
0
0
0
0
0
0
0
0
0
0
0
0
0
0
0.410349
0.403658
0.395021
0.384907
0.373741
0.361886
0.349643
0.337257
0.324922
0.31279
0.30098
0.289575
0.278635
0.268193
0.258269
0.248862
0.23996
0.23155
0.223618
0.216153
0.20914
0.202563
0.196403
0.190641
0.185255
0.18022
0.17551
0.171095
0.166944
0.163029
0.159322
0.1558
0.152447
0.149248
0.146191
0.143267
0.140467
0.137779
0.135194
0.132699
0.130282
0.127929
0.12563
0.123374
0.121149
0.118949
0.116764
0.114588
0.112416
0.110243
0.108067
0.105887
0.103704
0.101521
0.0993409
0.0971678
0.0950064
0.0928611
0.0907369
0.0886386
0.0865699
0.0845342
0.0825347
0.0805739
0.0786526
0.0767697
0.0749225
0.0731076
0.071319
0.0695492
0.0677903
0.0660352
0.0642758
0.0625039
0.0607127
0.0588933
0.0570355
0.0551256
0.0531469
0.0510768
0.0488836
0.0465239
0.0439359
0.0410296
0.0376738
0.0336782
0.0287858
0.0227367
0.0156029
0.00853953
0.00356996
0.00121316
0.000369415
0.000106987
3.01811e-05
8.36125e-06
2.28141e-06
6.15222e-07
1.64313e-07
4.34964e-08
1.14194e-08
2.97483e-09
7.69286e-10
1.97533e-10
5.03716e-11
1.27565e-11
3.20791e-12
8.0091e-13
1.98511e-13
4.8888e-14
1.19672e-14
2.90527e-15
6.73135e-16
1.17481e-16
0
0
0
0
0
0
0
0
0
0
0
0
0
0
0
0
0
0
0
0
0
0
0
0
0
0
0
0
0
0
0
0
0
0
0
0
0.390427
0.384479
0.376778
0.367706
0.357615
0.346817
0.335579
0.324127
0.312647
0.30129
0.290175
0.279391
0.269
0.259043
0.24954
0.240495
0.231906
0.223769
0.216082
0.208839
0.202033
0.19565
0.18968
0.184107
0.178914
0.17408
0.169579
0.16538
0.161448
0.15775
0.154255
0.150936
0.147776
0.144761
0.141883
0.139136
0.136512
0.134004
0.131599
0.129285
0.127048
0.124873
0.122747
0.120657
0.118592
0.116541
0.114496
0.112448
0.110391
0.10832
0.106231
0.104124
0.102001
0.0998637
0.0977178
0.0955686
0.0934219
0.0912838
0.0891606
0.0870587
0.0849828
0.082938
0.0809299
0.0789579
0.0770206
0.0751271
0.0732832
0.0714823
0.0697095
0.0679557
0.0662113
0.0644665
0.0627125
0.0609409
0.0591439
0.0573125
0.055435
0.0534971
0.0514792
0.0493543
0.0470848
0.0446167
0.041872
0.0387355
0.0350394
0.030546
0.0249729
0.0181976
0.0108988
0.00500065
0.00180418
0.000564445
0.000165226
4.68232e-05
1.30004e-05
3.55059e-06
9.55351e-07
2.54067e-07
6.6928e-08
1.74722e-08
4.52177e-09
1.16027e-09
2.95193e-10
7.44523e-11
1.86095e-11
4.60736e-12
1.12911e-12
2.73718e-13
6.56211e-14
1.55837e-14
3.64826e-15
8.19192e-16
1.46058e-16
0
0
0
0
0
0
0
0
0
0
0
0
0
0
0
0
0
0
0
0
0
0
0
0
0
0
0
0
0
0
0
0
0
0
0
0
0
0.372459
0.36709
0.360113
0.351845
0.342589
0.332617
0.322172
0.311465
0.300677
0.289954
0.279416
0.269152
0.259225
0.249676
0.240526
0.231783
0.223458
0.215555
0.208077
0.201023
0.194389
0.18817
0.18236
0.176951
0.171934
0.167293
0.163003
0.159032
0.155341
0.151885
0.148624
0.145529
0.142577
0.13976
0.137071
0.134512
0.13208
0.129768
0.127565
0.125457
0.123428
0.121459
0.119533
0.117638
0.115759
0.113885
0.112005
0.11011
0.108191
0.10624
0.104254
0.102232
0.100176
0.0980906
0.0959814
0.0938557
0.0917211
0.089586
0.0874577
0.0853439
0.083252
0.0811885
0.0791524
0.077141
0.0751731
0.0732561
0.0713948
0.0695961
0.0678394
0.066106
0.0643827
0.0626561
0.0609143
0.059148
0.0573469
0.0555012
0.0535985
0.0516234
0.0495527
0.0473544
0.0449819
0.0423672
0.039409
0.0359571
0.0317937
0.0266377
0.0202672
0.0130173
0.00649668
0.00249805
0.000807262
0.000239608
6.83487e-05
1.90515e-05
5.21779e-06
1.40679e-06
3.7367e-07
9.80816e-08
2.55041e-08
6.57102e-09
1.67747e-09
4.24227e-10
1.06241e-10
2.63315e-11
6.45337e-12
1.56232e-12
3.73174e-13
8.78441e-14
2.03941e-14
4.68337e-15
1.03193e-15
1.84159e-16
3.17516e-18
0
0
0
0
0
0
0
0
0
0
0
0
0
0
0
0
0
0
0
0
0
0
0
0
0
0
0
0
0
0
0
0
0
0
0
0
0
0.356265
0.351338
0.344905
0.337239
0.328606
0.319252
0.309405
0.299267
0.289012
0.278787
0.268706
0.258858
0.249302
0.240077
0.231207
0.222709
0.214597
0.206881
0.199565
0.192652
0.186142
0.180037
0.174339
0.169051
0.164173
0.159699
0.155615
0.151888
0.148465
0.145287
0.142297
0.139453
0.136731
0.134124
0.131635
0.129275
0.127047
0.124951
0.122976
0.121107
0.11932
0.117593
0.115906
0.114242
0.112585
0.110923
0.109244
0.107535
0.105783
0.103978
0.102116
0.100196
0.0982183
0.0961905
0.0941208
0.092018
0.0898923
0.0877538
0.0856121
0.083476
0.0813545
0.0792563
0.0771562
0.0750868
0.073061
0.0710935
0.0691979
0.067381
0.0656349
0.0639199
0.0622173
0.060509
0.058779
0.0570152
0.0552063
0.053341
0.0514058
0.0493815
0.0472405
0.0449429
0.0424295
0.0396105
0.0363514
0.0324531
0.027644
0.0216587
0.0146207
0.00780526
0.00318583
0.00106628
0.000321962
9.2703e-05
2.60098e-05
7.1626e-06
1.94057e-06
5.17694e-07
1.36026e-07
3.52977e-08
9.07396e-09
2.31046e-09
5.82506e-10
1.45335e-10
3.58575e-11
8.73953e-12
2.10158e-12
4.9785e-13
1.16043e-13
2.65825e-14
5.97883e-15
1.29864e-15
2.31787e-16
3.17516e-18
0
0
0
0
0
0
0
0
0
0
0
0
0
0
0
0
0
0
0
0
0
0
0
0
0
0
0
0
0
0
0
0
0
0
0
0
0
0
0.341678
0.337078
0.331038
0.323796
0.315596
0.30667
0.297238
0.287499
0.277624
0.267759
0.258015
0.248474
0.239192
0.230208
0.221548
0.213235
0.205282
0.197696
0.190483
0.183645
0.177189
0.171121
0.165454
0.160116
0.15505
0.150446
0.146512
0.143056
0.139973
0.13717
0.134551
0.132049
0.129629
0.127287
0.125041
0.122919
0.120943
0.11912
0.117442
0.115887
0.114424
0.11302
0.111647
0.110284
0.108915
0.107528
0.106108
0.104639
0.103103
0.101487
0.0997822
0.0979867
0.0961049
0.0941456
0.0921198
0.0900399
0.0879187
0.0857691
0.0836025
0.081429
0.0792589
0.0770661
0.0748768
0.072702
0.0705595
0.0684765
0.0664904
0.0646328
0.0628956
0.0612032
0.059527
0.0578404
0.0561223
0.054357
0.052532
0.0506354
0.0486516
0.0465565
0.0443154
0.0418757
0.0391584
0.0360428
0.0323463
0.0278119
0.0221641
0.015421
0.00861619
0.00368899
0.00127754
0.000393758
0.000114927
3.2595e-05
9.06302e-06
2.47772e-06
6.66641e-07
1.7656e-07
4.60277e-08
1.18342e-08
3.01358e-09
7.59655e-10
1.89424e-10
4.66825e-11
1.13578e-11
2.72439e-12
6.43266e-13
1.4928e-13
3.39997e-14
7.59817e-15
1.64156e-15
3.07991e-16
3.17516e-18
0
0
0
0
0
0
0
0
0
0
0
0
0
0
0
0
0
0
0
0
0
0
0
0
0
0
0
0
0
0
0
0
0
0
0
0
0
0
0
0.328551
0.324183
0.318399
0.31142
0.303476
0.294797
0.285602
0.276094
0.266446
0.256803
0.247272
0.237928
0.228827
0.220006
0.211493
0.203302
0.195444
0.187919
0.18073
0.173878
0.167369
0.161217
0.155051
0.148887
0.142987
0.13755
0.132927
0.129861
0.12736
0.125248
0.123321
0.121444
0.11955
0.117637
0.115755
0.113979
0.112377
0.110976
0.109773
0.108737
0.107816
0.106948
0.106087
0.105204
0.104287
0.103323
0.102297
0.10119
0.0999745
0.0986326
0.0971523
0.0955325
0.093781
0.0919119
0.0899414
0.0878878
0.0857689
0.0835999
0.0813945
0.0791641
0.0769198
0.0746078
0.0722599
0.0698784
0.0674748
0.0650931
0.0628421
0.0608528
0.0591161
0.0574602
0.0558331
0.0541902
0.0524986
0.0507364
0.0488913
0.0469517
0.0448989
0.0427011
0.0403103
0.0376545
0.0346267
0.0310645
0.0267354
0.0213848
0.0150227
0.00856763
0.00378352
0.00135238
0.000427818
0.000127517
3.68218e-05
1.04061e-05
2.8884e-06
7.88349e-07
2.1163e-07
5.58682e-08
1.44985e-08
3.70037e-09
9.35349e-10
2.33791e-10
5.77271e-11
1.40648e-11
3.37686e-12
7.97734e-13
1.85147e-13
4.21693e-14
9.40801e-15
2.02893e-15
3.8102e-16
3.17516e-18
0
0
0
0
0
0
0
0
0
0
0
0
0
0
0
0
0
0
0
0
0
0
0
0
0
0
0
0
0
0
0
0
0
0
0
0
0
0
0
0
0.316754
0.312533
0.306883
0.300014
0.292156
0.283541
0.2744
0.264948
0.255368
0.245805
0.236362
0.227114
0.218111
0.209384
0.200952
0.192817
0.184979
0.177428
0.170158
0.163162
0.15644
0.14939
0.14199
0.134375
0.126545
0.11907
0.112468
0.109154
0.10754
0.106674
0.106018
0.105274
0.104279
0.103016
0.101601
0.100237
0.0991235
0.0983425
0.0978998
0.0977504
0.0977957
0.0978947
0.0979468
0.0979078
0.0977695
0.0975313
0.0971811
0.096689
0.0960164
0.0951309
0.0940167
0.0926771
0.0911291
0.0893978
0.0875112
0.0854981
0.0833839
0.0811888
0.0789295
0.076618
0.0742209
0.0717234
0.0691082
0.0663326
0.0633515
0.0602162
0.0572402
0.0549218
0.0531837
0.0516275
0.0501367
0.048621
0.0470145
0.045281
0.0434099
0.0413973
0.0392214
0.0368373
0.0341784
0.0311516
0.0276304
0.02345
0.0184579
0.01277
0.00725688
0.0032699
0.00121365
0.000399645
0.000123415
3.67296e-05
1.06569e-05
3.02909e-06
8.4511e-07
2.31569e-07
6.23093e-08
1.64565e-08
4.26382e-09
1.08311e-09
2.71816e-10
6.738e-11
1.64778e-11
3.96978e-12
9.40817e-13
2.19016e-13
5.00279e-14
1.12147e-14
2.44805e-15
4.7945e-16
3.17516e-18
0
0
0
0
0
0
0
0
0
0
0
0
0
0
0
0
0
0
0
0
0
0
0
0
0
0
0
0
0
0
0
0
0
0
0
0
0
0
0
0
0
0.306134
0.301956
0.296309
0.289407
0.281493
0.272819
0.263636
0.254059
0.244224
0.234594
0.225126
0.215885
0.206909
0.198214
0.189797
0.181645
0.173737
0.166049
0.158551
0.151216
0.143499
0.134727
0.124983
0.114498
0.103217
0.0930864
0.0831019
0.0796849
0.079237
0.0804372
0.0818225
0.0828343
0.0831039
0.0825334
0.0813399
0.0792343
0.0784878
0.0783994
0.0789905
0.0802212
0.0819213
0.0837133
0.0853425
0.0867305
0.0879005
0.0888906
0.0897043
0.0902953
0.0905844
0.090505
0.0900295
0.0891697
0.0879632
0.0864603
0.0847135
0.0827711
0.0806729
0.0784493
0.0761205
0.0736963
0.071109
0.0683269
0.0652602
0.0617399
0.0575479
0.0527322
0.0481046
0.0452563
0.0435688
0.0423215
0.0412012
0.0400148
0.0386156
0.0369247
0.0349384
0.0326915
0.0301675
0.0273182
0.0240955
0.020484
0.0165298
0.012367
0.00826216
0.00469378
0.00221099
0.000880656
0.000311364
0.000102073
3.18693e-05
9.61647e-06
2.82688e-06
8.12966e-07
2.29136e-07
6.33082e-08
1.71358e-08
4.54037e-09
1.17686e-09
2.9821e-10
7.43441e-11
1.82734e-11
4.42284e-12
1.0528e-12
2.46193e-13
5.6537e-14
1.27673e-14
2.80684e-15
5.65179e-16
9.52549e-18
0
0
0
0
0
0
0
0
0
0
0
0
0
0
0
0
0
0
0
0
0
0
0
0
0
0
0
0
0
0
0
0
0
0
0
0
0
0
0
0
0
0
0.296575
0.292327
0.28653
0.279412
0.27124
0.262301
0.252872
0.243113
0.233191
0.223513
0.213386
0.204045
0.195038
0.186316
0.177848
0.169595
0.161506
0.153525
0.145584
0.137597
0.1276
0.115594
0.101691
0.0882732
0.0741204
0.0647665
0.0542828
0.0520235
0.0521227
0.0552862
0.0583523
0.0607669
0.0619103
0.0614013
0.0579948
0.0530463
0.0511753
0.0512406
0.05253
0.0551706
0.0591014
0.0633046
0.0671142
0.0704059
0.0733267
0.0760404
0.0786061
0.080942
0.0828498
0.08415
0.0847644
0.0847117
0.0840693
0.0829385
0.0814181
0.0795927
0.0775296
0.0752765
0.0728592
0.0702826
0.0674428
0.064249
0.0604797
0.055708
0.0493927
0.0417879
0.0346531
0.0316451
0.0301695
0.0296413
0.0292181
0.0285944
0.0274523
0.0255922
0.023042
0.0200807
0.0168246
0.0134357
0.0101853
0.00736073
0.00510657
0.00338412
0.00207083
0.00109913
0.000500846
0.000199544
7.17862e-05
2.40211e-05
7.64031e-06
2.34335e-06
6.99249e-07
2.03973e-07
5.82596e-08
1.62826e-08
4.44498e-09
1.18361e-09
3.07213e-10
7.76954e-11
1.92337e-11
4.68593e-12
1.12226e-12
2.63951e-13
6.09409e-14
1.38437e-14
3.06721e-15
6.28682e-16
3.49268e-17
0
0
0
0
0
0
0
0
0
0
0
0
0
0
0
0
0
0
0
0
0
0
0
0
0
0
0
0
0
0
0
0
0
0
0
0
0
0
0
0
0
0
0
0.287983
0.283545
0.277433
0.269888
0.261218
0.251769
0.241869
0.231739
0.221597
0.211712
0.201611
0.191954
0.182269
0.173452
0.16486
0.1564
0.147975
0.139472
0.130741
0.120131
0.106771
0.0896591
0.0717922
0.0597789
0.0471361
0.0440774
0.0411436
0.0211714
0.0169217
0.0448463
0.0468718
0.0486166
0.0493018
0.0479692
0.0426881
0.0359196
0.0336858
0.0327922
0.0329807
0.0347893
0.039223
0.0444674
0.0491055
0.0530391
0.056685
0.060441
0.0645012
0.0687617
0.072759
0.0759778
0.0781484
0.0792498
0.079406
0.078792
0.0775777
0.0759062
0.0738859
0.0715897
0.0690531
0.0662709
0.0631049
0.0593633
0.054618
0.0480536
0.0388453
0.0285158
0.0202704
0.0180439
0.0167565
0.0171874
0.0173528
0.0171774
0.0160283
0.0134582
0.00948216
0.00658671
0.00436264
0.00280778
0.00179257
0.00116168
0.000778968
0.000542446
0.000372586
0.000213004
0.000103287
4.2948e-05
1.58626e-05
5.39697e-06
1.73831e-06
5.39607e-07
1.63166e-07
4.83127e-08
1.40197e-08
3.97588e-09
1.09689e-09
2.93704e-10
7.63046e-11
1.92433e-11
4.71845e-12
1.1379e-12
2.69438e-13
6.26206e-14
1.43168e-14
3.18151e-15
6.60434e-16
5.08026e-17
0
0
0
0
0
0
0
0
0
0
0
0
0
0
0
0
0
0
0
0
0
0
0
0
0
0
0
0
0
0
0
0
0
0
0
0
0
0
0
0
0
0
0
0
0.280262
0.275507
0.268883
0.26065
0.251173
0.240903
0.230271
0.219589
0.209088
0.198902
0.188771
0.179077
0.169352
0.159306
0.150485
0.141665
0.132662
0.123253
0.11311
0.0983179
0.0805829
0.0588505
0.0420437
0.0374625
0.0334203
0.00318016
5.98121e-05
6.1149e-05
0.000189838
0.00103894
0.0187052
0.0411724
0.0416569
0.0393519
0.0315383
0.028022
0.00655376
0.000375737
0.00178568
0.014483
0.0340968
0.0370045
0.0394987
0.0415835
0.0437959
0.0466846
0.0506924
0.0559583
0.0618081
0.0670204
0.0708923
0.0732704
0.0743021
0.0742376
0.0733269
0.0717815
0.0697605
0.0673692
0.0646541
0.0615861
0.0580116
0.0535955
0.0476614
0.0389716
0.026911
0.0165808
0.0124352
0.00246149
0.00136254
0.0108379
0.0101861
0.00977071
0.00807919
0.00489336
0.00188951
0.000935204
0.000495005
0.000273064
0.000155613
9.57294e-05
6.70149e-05
5.78658e-05
5.96191e-05
3.93434e-05
2.13022e-05
9.2525e-06
3.4495e-06
1.17266e-06
3.77588e-07
1.17692e-07
3.59337e-08
1.08041e-08
3.1973e-09
9.24749e-10
2.5837e-10
6.95045e-11
1.80323e-11
4.52306e-12
1.09864e-12
2.61516e-13
6.11124e-14
1.40501e-14
3.14976e-15
6.60434e-16
5.08026e-17
0
0
0
0
0
0
0
0
0
0
0
0
0
0
0
0
0
0
0
0
0
0
0
0
0
0
0
0
0
0
0
0
0
0
0
0
0
0
0
0
0
0
0
0
0
0.273323
0.268109
0.260732
0.251452
0.240734
0.229221
0.217555
0.206135
0.195155
0.184638
0.174428
0.16464
0.15491
0.144868
0.134222
0.124755
0.114721
0.103625
0.0892905
0.067881
0.0501197
0.0303589
0.0252213
0.00314057
5.43842e-05
9.10458e-06
2.6086e-07
1.74165e-07
5.65885e-07
3.78816e-06
8.74726e-05
0.0100468
0.0327743
0.030023
0.0216316
0.000732291
3.48758e-06
5.2009e-07
5.5399e-06
9.06211e-05
0.0121751
0.0321927
0.0331116
0.0334265
0.0339539
0.0353041
0.0382479
0.0437659
0.0515569
0.0587313
0.0641289
0.0675914
0.0693309
0.0696685
0.0689233
0.0673669
0.0652101
0.0625936
0.0595737
0.056074
0.0519655
0.0467676
0.0396096
0.0289031
0.0150703
0.00886463
0.000377409
1.21512e-06
1.71e-06
4.55305e-05
0.000694016
0.00482737
0.00325559
0.00103013
0.000221513
6.46638e-06
2.3555e-08
1.11407e-06
6.4079e-09
1.66423e-08
9.88529e-08
1.62108e-06
1.47656e-05
8.03717e-06
4.92452e-06
2.10405e-06
7.50615e-07
2.46401e-07
7.77038e-08
2.40288e-08
7.36375e-09
2.24832e-09
6.83404e-10
2.04009e-10
5.78753e-11
1.55865e-11
4.01706e-12
9.97513e-13
2.3956e-13
5.62004e-14
1.29928e-14
2.93385e-15
6.00106e-16
2.22261e-17
0
0
0
0
0
0
0
0
0
0
0
0
0
0
0
0
0
0
0
0
0
0
0
0
0
0
0
0
0
0
0
0
0
0
0
0
0
0
0
0
0
0
0
0
0
0
0.267078
0.261256
0.252818
0.24197
0.229334
0.21595
0.202869
0.19053
0.179001
0.168178
0.157872
0.14797
0.138132
0.127998
0.1169
0.104543
0.0924091
0.0776998
0.0537375
0.0296253
0.0215903
0.0118531
0.0001917
1.12875e-05
3.11788e-07
3.58576e-08
9.0669e-10
5.04585e-10
1.6393e-09
1.11476e-08
3.31915e-07
0.000243594
0.00434524
0.0193534
0.0025749
4.37092e-05
1.66722e-07
1.09492e-09
1.27681e-08
3.09545e-07
0.000127229
0.0186135
0.00650757
0.00323535
0.00409722
0.0128494
0.024371
0.0414907
0.0480322
0.0543143
0.0595591
0.0631897
0.0651003
0.065471
0.0645861
0.0627308
0.0601441
0.0569887
0.0533584
0.0490957
0.0440988
0.0380562
0.0300994
0.0185157
0.00612302
0.000107878
3.73802e-07
1.36332e-09
1.65319e-09
7.71172e-08
1.47689e-06
0.000346963
0.000885599
0.000148751
1.75798e-05
5.17032e-07
6.70711e-10
8.75935e-10
6.90111e-12
9.83963e-12
3.81975e-11
4.84192e-10
5.51317e-09
1.61106e-07
1.2125e-06
4.35751e-07
1.41631e-07
4.40935e-08
1.35065e-08
4.12661e-09
1.26806e-09
3.95488e-10
1.26202e-10
4.06e-11
1.17794e-11
3.15506e-12
8.01392e-13
1.95898e-13
4.64114e-14
1.07543e-14
2.429e-15
4.9215e-16
3.17516e-18
0
0
0
0
0
0
0
0
0
0
0
0
0
0
0
0
0
0
0
0
0
0
0
0
0
0
0
0
0
0
0
0
0
0
0
0
0
0
0
0
0
0
0
0
0
0
0
0.261456
0.254895
0.245011
0.231788
0.216064
0.199703
0.184674
0.171235
0.159179
0.148155
0.137799
0.127787
0.117715
0.107144
0.0953941
0.080622
0.0623719
0.0405094
0.0154607
0.00522301
0.000252546
6.13697e-05
1.18103e-06
5.13886e-08
1.37475e-09
1.39306e-10
2.97574e-12
1.44911e-12
4.79985e-12
3.39563e-11
1.95455e-09
1.16455e-06
0.000371432
0.009661
0.00070727
7.36974e-06
3.00893e-08
8.99795e-11
3.22175e-11
1.06639e-09
0.00114511
0.00810249
0.000588201
2.46872e-05
4.91635e-05
0.00222897
0.0113962
0.0397062
0.0460194
0.0517339
0.0566043
0.060008
0.061682
0.0616798
0.0602046
0.0574803
0.0537041
0.0490234
0.044004
0.0382973
0.0316394
0.0238204
0.0148476
0.00589605
0.00120427
1.35803e-05
2.87314e-08
5.16456e-11
2.2235e-12
1.37112e-10
3.03014e-09
2.78486e-05
0.000123101
4.76169e-06
7.06128e-07
3.57425e-08
6.10482e-11
9.29977e-13
7.40766e-15
4.4611e-15
1.53487e-14
1.30928e-13
1.07212e-12
9.23e-10
1.50021e-07
5.05273e-08
1.57749e-08
4.7735e-09
1.44177e-09
4.40616e-10
1.37123e-10
4.44558e-11
1.58488e-11
6.57684e-12
1.97488e-12
5.19476e-13
1.28924e-13
3.09039e-14
7.24255e-15
1.63203e-15
2.98465e-16
3.17516e-18
0
0
0
0
0
0
0
0
0
0
0
0
0
0
0
0
0
0
0
0
0
0
0
0
0
0
0
0
0
0
0
0
0
0
0
0
0
0
0
0
0
0
0
0
0
0
0
0
0.25641
0.249079
0.237366
0.220507
0.199341
0.177467
0.159497
0.144737
0.132492
0.1217
0.111557
0.101541
0.0911182
0.0797056
0.0665243
0.0499301
0.0263843
0.00690743
0.000737447
3.34471e-05
1.32485e-06
4.531e-07
7.19054e-09
2.4723e-10
5.78811e-12
5.2642e-13
9.32863e-15
3.59429e-15
1.40183e-14
1.32865e-13
6.86491e-11
5.79323e-08
1.91574e-05
0.00295362
6.59432e-05
9.26314e-08
5.14054e-10
1.6908e-12
8.30242e-14
2.58839e-12
0.000294375
0.00191207
2.07569e-05
1.97031e-07
2.56048e-07
0.000384917
0.00518013
0.0387501
0.044865
0.0502788
0.0547943
0.0577621
0.0588328
0.0578943
0.0547947
0.0491887
0.0412722
0.0238691
0.018386
0.0134325
0.00907553
0.00588569
0.00391164
0.00157517
0.000399609
6.83865e-06
1.88689e-08
4.10788e-11
7.09236e-14
2.63808e-13
6.90535e-12
2.64532e-06
1.59681e-05
2.57073e-08
2.36025e-09
1.8909e-09
5.97364e-11
7.91448e-13
4.78497e-15
0
0
0
0
0
0
5.53266e-11
6.44621e-11
1.12776e-11
4.25755e-12
2.31723e-12
7.83446e-13
2.5729e-13
2.35753e-13
9.45218e-13
2.48387e-13
6.08711e-14
1.45549e-14
3.39742e-15
7.23937e-16
7.62039e-17
0
0
0
0
0
0
0
0
0
0
0
0
0
0
0
0
0
0
0
0
0
0
0
0
0
0
0
0
0
0
0
0
0
0
0
0
0
0
0
0
0
0
0
0
0
0
0
0
0
0
0.251919
0.24405
0.230457
0.207572
0.171851
0.128662
0.0977199
0.0749436
0.0880661
0.0834655
0.0750987
0.0662851
0.0566659
0.0455861
0.0330368
0.0181443
0.00440751
0.000272374
4.73734e-06
2.80956e-07
8.10651e-09
2.49984e-09
4.08434e-11