/*--------------------------------*- C++ -*----------------------------------*\
| =========                 |                                                 |
| \\      /  F ield         | OpenFOAM: The Open Source CFD Toolbox           |
|  \\    /   O peration     | Version:  2.1.0                                 |
|   \\  /    A nd           | Web:      www.OpenFOAM.org                      |
|    \\/     M anipulation  |                                                 |
\*---------------------------------------------------------------------------*/
FoamFile
{
    version     2.0;
    format      ascii;
    class       surfaceScalarField;
    location    "20075";
    object      phi_w;
}
// * * * * * * * * * * * * * * * * * * * * * * * * * * * * * * * * * * * * * //

dimensions      [1 -2 -2 0 0 0 0];

internalField   nonuniform List<scalar> 
29750
(
18.5876
18.6227
11.2203
7.36788
7.77507
3.46794
5.9702
1.91484
4.96262
1.21737
4.3542
0.862187
3.95145
0.655418
3.66505
0.520897
3.45223
0.42613
3.29044
0.355515
3.16654
0.30068
3.07216
0.256739
3.00166
0.220659
2.95094
0.190462
2.91693
0.164815
2.89723
0.142794
2.88988
0.123754
2.89324
0.107238
2.90585
0.0929085
2.92642
0.0805135
2.95377
0.0698606
2.98684
0.060805
3.02459
0.05323
3.06603
0.0470206
3.11017
0.0420591
3.15612
0.038228
3.20305
0.0354147
3.25022
0.0335098
3.297
0.032403
3.3428
0.031979
3.38713
0.0321334
3.4296
0.0327833
3.46987
0.0338624
3.50766
0.0353205
3.54271
0.0371041
3.57481
0.0391588
3.60379
0.0414311
3.62955
0.0438692
3.65204
0.0464117
3.67127
0.0489856
3.68733
0.0515103
3.7004
0.0539024
3.71074
0.056072
3.71869
0.0579312
3.72467
0.059398
3.72919
0.0604077
3.7328
0.060905
3.73608
0.0608373
3.73966
0.0601735
3.74418
0.0589065
3.75025
0.0570506
3.75849
0.0546319
3.76941
0.0517022
3.7835
0.0483367
3.80115
0.0446201
3.82264
0.0406493
3.84815
0.0365354
3.87775
0.0323878
3.91139
0.0283288
3.94892
0.0244653
3.99008
0.0208954
4.03454
0.0177126
4.08188
0.0149944
4.13165
0.012788
4.18336
0.0111226
4.23652
0.00999998
4.2907
0.00940203
4.34548
0.00928807
4.40051
0.00960426
4.45555
0.010265
4.5104
0.0112086
4.565
0.0123794
4.61931
0.0137048
4.67336
0.0151351
4.72731
0.0166336
4.78134
0.0181498
4.83569
0.0196497
4.89076
0.0211103
4.94696
0.0224824
5.00485
0.0237322
5.06521
0.0248048
5.12891
0.0256695
5.19717
0.0263318
5.27153
0.0268118
5.35396
0.0271634
5.447
0.0275437
5.55404
0.0282453
5.67965
0.0298376
5.83005
0.0332829
6.01349
0.040295
6.23968
0.0537387
6.51379
0.0774515
6.8099
0.112288
7.01365
0.140399
6.98744
0.117788
6.84589
0.0562083
6.76188
0.0132239
6.74315
-0.00931439
6.75975
-0.0254755
6.79817
-0.041037
6.8549
-0.0574871
6.92991
-0.0752494
7.02444
-0.0946007
7.14027
-0.115844
7.27958
-0.139319
7.44495
-0.165374
7.6393
-0.194367
7.86591
-0.226622
8.12827
-0.26236
8.42993
-0.301665
8.77429
-0.34435
9.16412
-0.389829
9.60104
-0.436938
10.0848
-0.483772
10.6125
-0.527689
11.178
-0.565513
11.7722
-0.59427
12.3849
-0.612629
13.0077
-0.62278
13.6396
-0.63195
14.2916
-0.652004
14.9882
-0.69652
15.7655
-0.777321
16.6664
-0.900923
17.7301
-1.06369
18.9743
-1.24425
20.3683
-1.39406
21.8026
-1.43433
23.0853
-1.2827
24.0239
-0.938543
24.5915
-0.567684
24.8316
-0.240097
24.7855
0.0461124
24.469
0.316593
23.8875
0.581423
23.0817
0.805909
22.16
0.921654
21.1644
0.995621
20.057
1.10734
18.768
1.28905
17.2501
1.51791
15.5145
1.73555
13.6105
1.90399
11.6098
2.00077
9.58152
2.02824
7.57534
2.00618
5.61638
1.95897
3.70903
1.90736
1.84316
1.86587
1.84317
7.3327
11.2907
7.32038
7.39073
6.22197
4.63337
5.27274
3.03315
4.60743
2.12464
4.14743
1.58317
3.81693
1.23585
3.57028
0.997065
3.38161
0.823369
3.23561
0.691293
3.12259
0.587295
3.03608
0.503105
2.97146
0.433429
2.92529
0.374752
2.89491
0.32467
2.87819
0.281511
2.87337
0.24409
2.87891
0.211554
2.89345
0.183272
2.91576
0.158776
2.94471
0.137713
2.97926
0.119816
3.01838
0.104852
3.06107
0.0925982
3.10634
0.0828283
3.15331
0.0753191
3.20114
0.0698461
3.24912
0.066177
3.29657
0.0640769
3.34295
0.0633217
3.38778
0.0637141
3.43068
0.0650965
3.47133
0.0673343
3.50944
0.070313
3.54476
0.0739281
3.57708
0.0780844
3.60623
0.0826886
3.63209
0.0876371
3.65461
0.0928021
3.67379
0.0980363
3.68972
0.103174
3.70257
0.108047
3.7126
0.112471
3.72015
0.11627
3.72568
0.119287
3.72968
0.121376
3.73273
0.122419
3.73542
0.122316
3.73839
0.121007
3.74232
0.118471
3.74784
0.114731
3.75556
0.109852
3.76604
0.103938
3.77978
0.0971316
3.79718
0.0896139
3.81852
0.0815761
3.844
0.073246
3.87369
0.0648583
3.90753
0.0566451
3.94535
0.0488305
3.9869
0.0416261
4.03182
0.0352131
4.07967
0.0297502
4.12998
0.0253396
4.18224
0.0220395
4.23592
0.0198535
4.29058
0.0187512
4.34579
0.018629
4.40117
0.0193619
4.4565
0.020819
4.51158
0.0228578
4.56632
0.0253412
4.62074
0.0281404
4.67486
0.0311527
4.72882
0.0343016
4.78284
0.0375126
4.83715
0.0407098
4.89213
0.0438488
4.94821
0.0468515
5.00593
0.0496432
5.06607
0.0521758
5.12957
0.0543881
5.19765
0.056274
5.27188
0.0578933
5.35434
0.0594196
5.4477
0.0612074
5.55563
0.0639009
5.68309
0.0686336
5.83706
0.0773214
6.02693
0.0930838
6.26339
0.120351
6.54863
0.163232
6.83802
0.21525
6.99104
0.235724
6.92586
0.176182
6.80291
0.0867258
6.73934
0.0249003
6.72699
-0.0153538
6.74419
-0.0482732
6.78172
-0.0801875
6.83713
-0.113368
6.91056
-0.148836
7.0032
-0.187315
7.1168
-0.229487
7.25353
-0.276072
7.41595
-0.327821
7.60705
-0.385482
7.83018
-0.449732
8.08897
-0.521128
8.38725
-0.599935
8.72881
-0.685914
9.11701
-0.778048
9.5542
-0.874143
10.0409
-0.970466
10.5747
-1.06148
11.1492
-1.14008
11.7539
-1.19893
12.3747
-1.23345
12.9985
-1.24653
13.6196
-1.25304
14.2471
-1.27956
14.9074
-1.35676
15.6419
-1.51186
16.5036
-1.7627
17.5495
-2.10957
18.8245
-2.51928
20.3281
-2.89769
21.9543
-3.06056
23.4295
-2.75793
24.3947
-1.90379
24.9191
-1.09206
25.1178
-0.4388
25.056
0.107941
24.7338
0.638843
24.112
1.20321
23.1974
1.72055
22.234
1.88506
21.2761
1.9535
20.2387
2.14469
18.9968
2.53096
17.4677
3.04703
15.683
3.52029
13.7073
3.87967
11.6372
4.07085
9.55947
4.10599
7.52813
4.03753
5.56477
3.92235
3.66754
3.8046
1.82045
3.71297
3.66363
3.4327
7.88028
4.56303
6.32679
4.62174
4.72622
4.36423
3.51966
4.06597
2.68432
3.80011
2.10805
3.57815
1.6996
3.39659
1.39973
3.24954
1.17187
3.13161
0.993298
3.0384
0.849614
2.96641
0.731403
2.91278
0.632352
2.87521
0.548128
2.85175
0.4757
2.84077
0.412916
2.84083
0.358229
2.85063
0.310506
2.86896
0.268911
2.8947
0.23282
2.92682
0.201767
2.9643
0.175385
3.00613
0.153347
3.0513
0.135336
3.09883
0.121035
3.14783
0.110119
3.19747
0.102245
3.24702
0.0970554
3.29582
0.0941922
3.34334
0.0933184
3.38916
0.0941415
3.43291
0.0964141
3.4743
0.0999367
3.51306
0.104539
3.54892
0.110084
3.58169
0.116449
3.61118
0.123509
3.63726
0.131107
3.65984
0.139047
3.67893
0.14711
3.69459
0.155045
3.707
0.162582
3.7164
0.169443
3.72317
0.175354
3.72777
0.180073
3.73073
0.183377
3.73263
0.18507
3.73411
0.184999
3.73586
0.183069
3.73858
0.179251
3.74296
0.173576
3.74964
0.166139
3.75924
0.157108
3.77227
0.146699
3.78914
0.135179
3.81019
0.12287
3.83561
0.110114
3.86547
0.0972692
3.89971
0.0846948
3.93815
0.07274
3.98049
0.0617323
4.02636
0.0519704
4.07526
0.0436835
4.12668
0.0370378
4.18005
0.0321279
4.23482
0.0289603
4.29046
0.0274639
4.34652
0.0274941
4.40263
0.0288478
4.45854
0.0313098
4.51406
0.0346441
4.56912
0.0386323
4.62375
0.0431018
4.67801
0.0478943
4.73203
0.0528841
4.78604
0.0579937
4.84029
0.063129
4.89513
0.0681938
4.951
0.0731206
5.00846
0.0778138
5.06828
0.08218
5.13145
0.0861688
5.19927
0.0897919
5.2734
0.0931537
5.35613
0.096577
5.45039
0.100604
5.56036
0.106264
5.69178
0.115262
5.85283
0.130354
6.0542
0.155659
6.30627
0.196196
6.60065
0.253205
6.85849
0.306334
6.93149
0.295208
6.83641
0.201632
6.74108
0.102725
6.69909
0.0320705
6.69407
-0.021796
6.71228
-0.0699107
6.74854
-0.117448
6.80166
-0.166785
6.87208
-0.219353
6.96103
-0.276289
7.07021
-0.338675
7.20178
-0.407629
7.35829
-0.48434
7.5428
-0.569978
7.75878
-0.66569
8.01016
-0.772494
8.30127
-0.891041
8.63668
-1.02134
9.02091
-1.1623
9.45788
-1.31112
9.94987
-1.46247
10.4961
-1.60767
11.0904
-1.7344
11.7194
-1.82792
12.3616
-1.87571
12.992
-1.87688
13.5931
-1.85411
14.1699
-1.85642
14.7523
-1.93911
15.391
-2.15066
16.1567
-2.52841
17.1398
-3.09263
18.4461
-3.82561
20.1652
-4.61682
22.2569
-5.15227
24.2836
-4.78467
25.2064
-2.82659
25.5724
-1.45797
25.6646
-0.531003
25.5869
0.185607
25.2982
0.927637
24.6294
1.87202
23.3619
2.98798
22.3024
2.94454
21.4673
2.78865
20.625
2.98695
19.5129
3.64306
17.941
4.61899
16.0424
5.4189
13.8985
6.02355
11.6724
6.29698
9.49101
6.28733
7.41295
6.11561
5.44701
5.8883
3.57592
5.6757
1.77111
5.51779
5.43475
1.87921
6.10907
2.96247
5.41105
3.41517
4.50202
3.52889
3.66634
3.48969
2.98623
3.39166
2.45519
3.27828
2.04304
3.16872
1.71998
3.07097
1.46255
2.98792
1.25365
2.92019
1.08108
2.86736
0.93623
2.82856
0.812949
2.80278
0.706834
2.78896
0.614702
2.78608
0.534233
2.79311
0.463721
2.80903
0.401902
2.83287
0.347834
2.86365
0.300816
2.90043
0.26032
2.94226
0.22592
2.98812
0.197225
3.037
0.173853
3.08792
0.155411
3.13996
0.141475
3.19228
0.131586
3.24415
0.125253
3.29494
0.121985
3.34417
0.121319
3.39143
0.12285
3.43644
0.126238
3.47891
0.131217
3.5186
0.137588
3.55529
0.145202
3.58875
0.153931
3.61878
0.163617
3.6452
0.174062
3.66791
0.185013
3.68686
0.196167
3.70213
0.20718
3.71386
0.217664
3.72231
0.227237
3.72789
0.23553
3.73107
0.242195
3.73242
0.246913
3.73255
0.249408
3.73218
0.249473
3.73204
0.24697
3.7329
0.241849
3.73552
0.234153
3.74061
0.224012
3.74883
0.211648
3.76075
0.197371
3.77683
0.181558
3.79744
0.16465
3.82277
0.147124
3.8529
0.129474
3.88776
0.1122
3.92714
0.0958
3.97073
0.0807322
4.01807
0.0674024
4.06862
0.0561435
4.12177
0.0471992
4.17688
0.0407006
4.23332
0.0366616
4.29049
0.0349595
4.34788
0.0353839
4.40509
0.0376396
4.46187
0.0413962
4.51805
0.0463121
4.57359
0.0520794
4.62854
0.0584476
4.683
0.0652241
4.73714
0.0722726
4.79117
0.0794894
4.84536
0.0867901
4.90006
0.0940853
4.9557
0.101266
5.01283
0.108222
5.07227
0.114863
5.13508
0.121107
5.20264
0.126997
5.27683
0.13269
5.36016
0.138628
5.45605
0.145609
5.56936
0.155055
5.70687
0.169229
5.87813
0.19167
6.09474
0.227208
6.36328
0.28026
6.65378
0.345064
6.84736
0.380694
6.83792
0.324812
6.7375
0.210824
6.67043
0.11161
6.64522
0.0355493
6.64595
-0.0293373
6.66474
-0.090717
6.6992
-0.152474
6.7491
-0.216854
6.81515
-0.285481
6.89864
-0.359807
7.00126
-0.441291
7.12507
-0.531461
7.27265
-0.631937
7.44708
-0.744408
7.65197
-0.870601
7.89162
-1.01215
8.17097
-1.17041
8.49571
-1.34609
8.87209
-1.53868
9.30653
-1.74556
9.80467
-1.96061
10.3693
-2.17233
10.9968
-2.3619
11.6716
-2.50263
12.3605
-2.56461
13.0148
-2.53119
13.5907
-2.43007
14.0872
-2.35293
14.5407
-2.39261
15.0133
-2.62326
15.5925
-3.10765
16.4068
-3.90691
17.6549
-5.07368
19.6298
-6.59171
22.6245
-8.14702
26.2417
-8.40188
26.5751
-3.15992
26.4993
-1.38225
26.3812
-0.412852
26.329
0.237858
26.2425
1.01406
25.7453
2.36924
23.3185
5.41483
22.1465
4.11649
21.6656
3.26961
21.2811
3.3714
20.4888
4.43534
18.7409
6.36696
16.647
7.51279
14.1719
8.49863
11.6627
8.80617
9.31929
8.63077
7.18564
8.24928
5.23441
7.83952
3.41801
7.49211
1.68807
7.24775
7.12284
1.1812
5.13538
2.05344
4.7797
2.57949
4.23741
2.84878
3.66009
2.95865
3.12815
2.9795
2.6692
2.95522
2.28405
2.9113
1.96334
2.86206
1.6956
2.81536
1.47033
2.77534
1.27893
2.74408
1.11467
2.72244
0.97242
2.71065
0.84827
2.7085
0.739291
2.71557
0.643274
2.73129
0.55855
2.75496
0.483864
2.78585
0.418278
2.82315
0.361093
2.86603
0.311781
2.91356
0.269903
2.96475
0.235046
3.01855
0.206794
3.07398
0.184698
3.13007
0.168247
3.18595
0.156862
3.24089
0.14991
3.29428
0.146738
3.3457
0.146728
3.39482
0.149333
3.44142
0.154117
3.48528
0.160763
3.52621
0.169073
3.56401
0.178917
3.59843
0.190178
3.62922
0.202699
3.65615
0.216255
3.67906
0.230539
3.69788
0.245151
3.71261
0.259627
3.72343
0.273459
3.7306
0.286139
3.73456
0.297179
3.73579
0.306115
3.73492
0.312526
3.73262
0.316046
3.72968
0.316394
3.72692
0.313386
3.72521
0.306943
3.72538
0.297103
3.72825
0.284042
3.73455
0.268051
3.74493
0.249539
3.75992
0.22901
3.77991
0.20704
3.80512
0.184256
3.83562
0.16131
3.87136
0.138873
3.91207
0.117586
3.9574
0.0980673
4.00681
0.0808593
4.05967
0.0664201
4.11527
0.0550803
4.17284
0.04702
4.23162
0.0422497
4.29091
0.0406009
4.35013
0.0417679
4.40885
0.0453163
4.46679
0.0507599
4.52381
0.0576316
4.57996
0.0655077
4.63532
0.0740562
4.69005
0.0830701
4.74436
0.0923965
4.79847
0.101945
4.85265
0.111671
4.90724
0.12149
4.96265
0.131283
5.01947
0.140921
5.07851
0.150313
5.14097
0.159348
5.20833
0.168058
5.28276
0.176677
5.36714
0.185776
5.4655
0.196427
5.58353
0.210485
5.72931
0.230792
5.91367
0.261664
6.14779
0.308309
6.42808
0.372351
6.68941
0.43438
6.79148
0.431793
6.72393
0.333597
6.63829
0.214283
6.59437
0.117454
6.58033
0.0367997
6.58457
-0.0373714
6.60298
-0.110245
6.63482
-0.184644
6.68047
-0.262596
6.74082
-0.34586
6.81716
-0.436144
6.91109
-0.535209
7.02459
-0.644981
7.16018
-0.767534
7.32089
-0.905117
7.51042
-1.06015
7.73336
-1.23509
7.9953
-1.43235
8.30312
-1.65391
8.66521
-1.90076
9.09148
-2.17185
9.59295
-2.46208
10.1798
-2.75912
10.8561
-3.03826
11.6096
-3.25612
12.3939
-3.34891
13.1159
-3.25317
13.6679
-2.98207
14.0475
-2.73262
14.3101
-2.65513
14.5289
-2.8421
14.7933
-3.37201
15.24
-4.35368
16.1368
-5.97049
18.0744
-8.52932
22.3696
-12.4422
31.4837
-17.5159
28.3527
-30.1501
27.4688
-9.19729
27.0319
0.278
27.1052
1.8761
27.5977
5.66662
28.7909
12.5838
22.0201
12.1856
21.2996
4.83699
21.7674
2.80188
22.3451
2.7937
22.4205
4.35996
19.8867
8.9007
17.6328
9.76665
14.4794
11.652
11.4873
11.7983
8.9378
11.1803
6.77588
10.4112
4.887
9.7284
3.17365
9.20548
1.56316
8.85827
8.68601
0.825519
4.5632
1.51115
4.3556
2.00217
4.00654
2.31685
3.59562
2.4997
3.18083
2.59435
2.79379
2.63452
2.44706
2.64355
2.1425
2.63679
1.87697
2.62396
1.64562
2.61109
1.44347
2.60182
1.26602
2.59829
1.10954
2.60167
0.970974
2.61248
0.847914
2.63085
0.738463
2.6566
0.641149
2.68938
0.55485
2.72866
0.478725
2.77384
0.412159
2.82416
0.354682
2.87871
0.305887
2.93649
0.265393
2.99646
0.232797
3.05753
0.207623
3.11869
0.189287
3.179
0.177085
3.23771
0.17021
3.29427
0.1678
3.3483
0.169025
3.3996
0.173165
3.44806
0.179676
3.49359
0.188219
3.53606
0.198627
3.57528
0.210838
3.61095
0.224799
3.64278
0.240397
3.67043
0.257399
3.69367
0.275434
3.71235
0.293986
3.72645
0.312442
3.73611
0.330147
3.74164
0.34645
3.74349
0.360719
3.7422
0.372358
3.73844
0.380828
3.73297
0.38567
3.72667
0.386514
3.72048
0.383096
3.71537
0.375297
3.71232
0.36316
3.71226
0.346898
3.71604
0.326883
3.7244
0.303645
3.73795
0.277836
3.75712
0.250191
3.78217
0.221511
3.81319
0.192628
3.85007
0.164392
3.89255
0.137632
3.94019
0.113139
3.99237
0.0916226
4.04833
0.0737003
4.10721
0.0598165
4.16807
0.0502128
4.22997
0.0449158
4.29208
0.0436919
4.35368
0.0460758
4.41429
0.0514578
4.47366
0.0591427
4.53169
0.0684507
4.58851
0.0788353
4.64433
0.0898858
4.69937
0.101378
4.75391
0.113206
4.8082
0.125324
4.86247
0.137735
4.91703
0.150387
4.97229
0.163212
5.02886
0.176037
5.08755
0.188712
5.14968
0.201124
5.21695
0.213306
5.29186
0.225542
5.37779
0.23854
5.47955
0.253657
5.60384
0.273253
5.76019
0.300955
5.96031
0.341758
6.21183
0.400261
6.49011
0.470977
6.68682
0.512185
6.69329
0.456534
6.60462
0.33277
6.54146
0.217465
6.51371
0.122475
6.50616
0.0372392
6.5117
-0.0450159
6.52858
-0.127715
6.55687
-0.21309
6.59721
-0.30299
6.65054
-0.399233
6.7181
-0.503688
6.80131
-0.618434
6.90204
-0.745735
7.0226
-0.888101
7.16586
-1.04839
7.33548
-1.22977
7.5361
-1.4357
7.77374
-1.66997
8.05627
-1.93642
8.39412
-2.23862
8.80124
-2.57896
9.29591
-2.95672
9.90063
-3.36384
10.6383
-3.7759
11.5168
-4.13468
12.4896
-4.32174
13.387
-4.15052
13.9173
-3.51244
14.125
-2.94034
14.1231
-2.65319
13.999
-2.71798
13.8116
-3.18461
13.6232
-4.16531
13.578
-5.92527
14.1615
-9.11283
17.296
-15.5767
18.8495
-20.607
49.3055
-41.2134
36.944
-32.643
28.63
-6.39915
30.8957
14.0368
34.5149
17.599
28.3927
8.52986
14.6715
2.18929
19.2645
3.01583
21.7592
3.73084
23.9113
7.19469
26.9612
14.4597
20.7527
15.1092
19.5182
11.0011
14.6258
16.5445
10.8693
15.5548
8.16872
13.8808
6.09306
12.4869
4.36408
11.4574
2.82645
10.7431
1.3909
10.2938
10.0769
0.617916
4.1998
1.16208
4.06361
1.59125
3.82147
1.90206
3.51688
2.11265
3.18845
2.24762
2.86276
2.32995
2.55493
2.37803
2.2718
2.40545
2.01519
2.4218
1.78429
2.43364
1.57708
2.44534
1.3912
2.45973
1.22435
2.47861
1.07446
2.50303
0.939756
2.53353
0.818786
2.5703
0.710382
2.61325
0.613642
2.6621
0.527906
2.71636
0.452699
2.77536
0.387654
2.83821
0.332468
2.9039
0.286853
2.97128
0.250473
3.0392
0.222871
3.10648
0.203416
3.17212
0.191263
3.2353
0.185374
3.29549
0.184599
3.35244
0.18781
3.40612
0.194054
3.45661
0.202666
3.504
0.213304
3.54827
0.225902
3.58924
0.240549
3.62655
0.257342
3.65978
0.276274
3.68847
0.297127
3.71223
0.319441
3.73081
0.342557
3.74415
0.365671
3.75241
0.387939
3.75591
0.40852
3.75513
0.426616
3.75067
0.441501
3.74328
0.452517
3.73381
0.459078
3.72325
0.460691
3.71268
0.456999
3.70323
0.447821
3.69606
0.433186
3.69224
0.413354
3.6928
0.388804
3.6986
0.360214
3.71031
0.328404
3.72844
0.294298
3.75329
0.258899
3.78495
0.223258
3.82331
0.188418
3.86806
0.155411
3.91867
0.125249
3.97445
0.0988574
4.03445
0.0770262
4.09761
0.0603782
4.16278
0.0492684
4.22875
0.043724
4.29446
0.043423
4.35906
0.0477045
4.42198
0.0556675
4.48297
0.0663215
4.54207
0.0787049
4.59956
0.0920905
4.65582
0.106006
4.7112
0.120203
4.76603
0.134689
4.82061
0.149563
4.87512
0.164923
4.92986
0.180778
4.98512
0.197081
5.04153
0.213666
5.09996
0.230321
5.16186
0.246879
5.22918
0.263312
5.30486
0.27997
5.39291
0.29774
5.49915
0.318375
5.63154
0.344804
5.80099
0.381548
6.01882
0.43403
6.28255
0.503862
6.53132
0.570094
6.63117
0.56626
6.56952
0.460735
6.48931
0.331413
6.44647
0.222574
6.42848
0.127807
6.42391
0.0380363
6.429
-0.0511888
6.44321
-0.142242
6.46697
-0.236932
6.50096
-0.337031
6.54608
-0.444363
6.60335
-0.560975
6.67401
-0.689135
6.75967
-0.831404
6.86231
-0.990757
6.98449
-1.17058
7.12954
-1.37481
7.30183
-1.608
7.50729
-1.87542
7.75406
-2.1832
8.05378
-2.53835
8.42348
-2.94866
8.88879
-3.42203
9.48857
-3.96364
10.2795
-4.56683
11.3297
-5.18493
12.6608
-5.65284
14.025
-5.51473
14.4894
-3.97684
14.4122
-2.86309
14.0583
-2.29932
13.5323
-2.19202
12.8309
-2.48316
11.8633
-3.19769
10.3904
-4.45245
7.69764
-6.42002
12.2657
-9.03851
-1.75683
-14.87
57.8759
-6.6581
63.1879
-12.9926
49.0659
1.46407
34.4579
11.1427
25.4458
16.9795
22.0521
22.6369
15.4981
25.1218
19.9795
28.887
25.223
29.463
31.1764
19.3223
27.6107
13.7113
16.6445
12.6817
25.0616
29.6941
13.6361
27.97
9.19533
19.9956
6.77475
16.3014
5.06357
14.1981
3.64982
12.8712
2.37716
12.0158
1.17397
11.497
11.2509
0.481734
3.9562
0.91994
3.85857
1.28666
3.67927
1.57363
3.44353
1.78697
3.17686
1.93979
2.89968
2.04682
2.62604
2.12142
2.36441
2.17454
2.11916
2.2146
1.89205
2.24777
1.68327
2.27849
1.49219
2.30984
1.31779
2.34391
1.15896
2.38206
1.01459
2.42513
0.883708
2.47356
0.765497
2.52751
0.659338
2.58689
0.564791
2.65132
0.481552
2.72018
0.40942
2.7926
0.348266
2.86752
0.297972
2.94368
0.25835
3.01974
0.229033
3.09433
0.20937
3.16623
0.198362
3.23453
0.194658
3.29871
0.196684
3.35869
0.202873
3.41473
0.211925
3.46724
0.223016
3.51659
0.235851
3.56291
0.250576
3.60603
0.267576
3.64548
0.287244
3.68063
0.309755
3.71078
0.334934
3.73534
0.362214
3.75392
0.390718
3.76642
0.419376
3.77299
0.447071
3.77401
0.472735
3.77002
0.495401
3.76169
0.514213
3.74984
0.528383
3.73542
0.537173
3.71956
0.539932
3.7035
0.536159
3.6886
0.525582
3.67622
0.508207
3.66769
0.484343
3.66421
0.454609
3.66679
0.419861
3.6762
0.381133
3.69305
0.339589
3.71765
0.296462
3.75011
0.253025
3.7903
0.210555
3.8379
0.170336
3.89228
0.133612
3.95262
0.101564
4.0178
0.0752435
4.0865
0.0555135
4.15723
0.0429092
4.22844
0.0374894
4.29875
0.0388159
4.36703
0.0459601
4.43263
0.057583
4.49535
0.0722123
4.55546
0.0885187
4.61348
0.105498
4.67002
0.122596
4.72569
0.139678
4.7809
0.156926
4.83597
0.174638
4.89098
0.193129
4.94616
0.212565
5.0017
0.232913
5.05819
0.254
5.11652
0.27551
5.17829
0.297183
5.24584
0.318915
5.32263
0.341082
5.41354
0.364779
5.52558
0.392268
5.66829
0.42731
5.85347
0.475276
6.08865
0.540882
6.34878
0.616969
6.52748
0.656152
6.52564
0.589773
6.4402
0.456735
6.38047
0.333988
6.3517
0.23012
6.33871
0.13425
6.33468
0.0401565
6.33795
-0.0549836
6.34852
-0.152945
6.36687
-0.255318
6.39363
-0.363783
6.42947
-0.480205
6.47519
-0.60669
6.53174
-0.745678
6.60032
-0.900002
6.68248
-1.07293
6.78026
-1.26836
6.89635
-1.4909
7.03441
-1.74605
7.19951
-2.04052
7.39892
-2.38263
7.64347
-2.78291
7.95012
-3.25531
8.34717
-3.8191
8.88538
-4.50187
9.66138
-5.34282
10.8618
-6.38541
12.799
-7.58997
15.5629
-8.27872
15.6032
-4.01708
14.976
-2.23586
14.1656
-1.48897
13.2412
-1.26761
12.1164
-1.35831
10.6085
-1.68981
8.42287
-2.26682
5.07915
-3.07629
6.43413
-4.52619
6.45512
-7.08213
51.5414
-4.10242
77.6445
9.85733
58.7446
20.3641
40.2947
29.5927
31.1032
41.563
24.537
50.4242
19.2633
54.8941
20.5555
55.8047
15.0823
50.1603
25.5654
42.3161
26.5811
41.2713
33.6569
54.3805
23.3375
49.0149
5.66166
24.3392
5.50118
20.1561
4.67141
17.1311
3.73666
15.1328
2.79446
13.8134
1.8584
12.9519
0.927805
12.4276
12.1787
0.384108
3.79038
0.740634
3.71538
1.05092
3.57478
1.30695
3.38422
1.50979
3.1609
1.66616
2.9202
1.78518
2.67415
1.87617
2.43123
1.94743
2.19697
2.00582
1.97462
2.05669
1.76588
2.10409
1.57142
2.151
1.3913
2.19954
1.2252
2.25117
1.07262
2.30692
0.933071
2.3674
0.80608
2.43297
0.691316
2.50365
0.588557
2.57919
0.4977
2.65902
0.41877
2.7423
0.351889
2.82789
0.297211
2.91437
0.254805
3.00008
0.224498
3.08332
0.205701
3.16253
0.197245
3.23655
0.19735
3.30489
0.203792
3.36774
0.2143
3.42582
0.227032
3.48008
0.240939
3.53132
0.255857
3.57991
0.272347
3.6257
0.291342
3.668
0.313739
3.70581
0.340039
3.73806
0.370131
3.76385
0.403281
3.78258
0.43827
3.79411
0.473623
3.79865
0.507831
3.79667
0.539556
3.78883
0.567679
3.77586
0.591236
3.75863
0.609311
3.73818
0.620992
3.71578
0.625413
3.69292
0.621863
3.67122
0.609898
3.65236
0.589478
3.63796
0.560998
3.62946
0.52525
3.62806
0.483329
3.63466
0.43654
3.64992
0.386338
3.67421
0.334227
3.70764
0.281736
3.75008
0.230397
3.80117
0.181749
3.86023
0.1373
3.9263
0.0985576
3.99807
0.0669473
4.0739
0.0436613
4.15181
0.0295111
4.22977
0.0247053
4.30589
0.0286849
4.37865
0.040077
4.44726
0.0569013
4.51166
0.0769531
4.57244
0.0982824
4.63057
0.119537
4.6871
0.140104
4.74294
0.160057
4.79861
0.179951
4.85446
0.200483
4.91042
0.222244
4.96651
0.245629
5.02279
0.270691
5.0797
0.297229
5.13819
0.324787
5.20003
0.352901
5.26801
0.381337
5.34633
0.410436
5.44103
0.441647
5.56062
0.4779
5.71625
0.523972
5.91908
0.585601
6.16474
0.66331
6.38796
0.729659
6.46111
0.710805
6.39261
0.590189
6.31745
0.455042
6.2766
0.34138
6.25583
0.240005
6.24461
0.142259
6.23954
0.0443341
6.23999
-0.0556726
6.24614
-0.159161
6.25841
-0.267591
6.27721
-0.382578
6.30299
-0.505953
6.3362
-0.639888
6.37742
-0.78691
6.42739
-0.949968
6.48706
-1.1326
6.55773
-1.33905
6.6412
-1.57436
6.73994
-1.84478
6.8574
-2.15802
6.99864
-2.52387
7.17107
-2.95533
7.38633
-3.47059
7.66441
-4.0972
8.04443
-4.88189
8.61879
-5.9172
9.65727
-7.42391
12.1102
-10.0429
19.8246
-15.9931
17.3844
-17.3363
15.7228
-8.2897
14.387
-2.98987
13.1505
-0.479961
11.7849
0.10893
10.0315
0.796279
7.6134
1.73846
3.62925
0.907853
3.87818
-1.22608
9.43484
-2.72763
65.5012
25.0019
88.1513
45.3747
67.9732
40.5424
52.265
45.3008
39.9643
53.8636
29.0069
61.3815
20.1738
63.7273
14.9112
61.0675
7.23812
57.8334
24.5206
63.0803
39.6903
64.2569
28.2913
55.3399
-1.33826
29.9957
1.47852
22.767
2.47627
19.1583
2.67308
16.9343
2.41721
15.3887
1.93294
14.2976
1.33417
13.5506
0.678862
13.0829
12.8576
0.309104
3.68102
0.60004
3.61991
0.860365
3.50374
1.08363
3.34281
1.26909
3.1492
1.4201
2.93461
1.54227
2.70915
1.64191
2.48079
1.72508
2.25541
1.79708
2.03711
1.86223
1.82858
1.92397
1.63143
1.9849
1.4465
2.04696
1.27413
2.11162
1.11434
2.17993
0.967014
2.25264
0.832003
2.33021
0.709197
2.41279
0.598573
2.50026
0.500254
2.59214
0.414544
2.68763
0.341902
2.78549
0.282873
2.88406
0.237948
2.98128
0.207327
3.07487
0.190627
3.16263
0.18656
3.243
0.192753
3.3154
0.20594
3.38047
0.222664
3.43972
0.240173
3.495
0.257096
3.54781
0.273574
3.59891
0.29093
3.64809
0.311058
3.6943
0.335717
3.7359
0.365937
3.77121
0.4017
3.79883
0.441973
3.81793
0.484967
3.82832
0.528538
3.83038
0.570624
3.8248
0.609559
3.81238
0.644129
3.79393
0.673359
3.77031
0.696268
3.7426
0.71174
3.71223
0.718574
3.68096
0.71569
3.6508
0.702393
3.62388
0.678567
3.60221
0.644713
3.58754
0.601871
3.58127
0.551469
3.58446
0.495195
3.59781
0.434848
3.62172
0.372253
3.6563
0.309209
3.70144
0.247497
3.75672
0.188915
3.82149
0.13528
3.89469
0.0884807
3.97479
0.0504166
4.05975
0.0228066
4.14701
0.00695391
4.23375
0.00339214
4.31728
0.0114681
4.39547
0.0291739
4.46731
0.053482
4.53298
0.0810217
4.59369
0.108866
4.65114
0.135138
4.70706
0.159275
4.76283
0.181807
4.81915
0.203878
4.87622
0.226883
4.9338
0.251916
4.99157
0.279698
5.04933
0.310374
5.10726
0.343638
5.16631
0.378856
5.22846
0.415248
5.29711
0.452333
5.37754
0.49047
5.47728
0.531439
5.60669
0.579095
5.77788
0.639155
5.99678
0.715855
6.23108
0.796161
6.36911
0.819416
6.34049
0.726812
6.25746
0.584447
6.20379
0.45992
6.17523
0.35278
6.15808
0.251994
6.14669
0.152181
6.13954
0.0510481
6.1365
-0.0527405
6.13771
-0.160427
6.14342
-0.273326
6.15383
-0.392964
6.16905
-0.521167
6.18918
-0.660043
6.21436
-0.812097
6.24475
-0.980368
6.28062
-1.16849
6.32241
-1.38082
6.37078
-1.62272
6.42669
-1.90072
6.49155
-2.22289
6.56719
-2.59949
6.6558
-3.04396
6.75972
-3.57452
6.87971
-4.2172
7.00912
-5.01133
7.11208
-6.02018
7.03828
-7.35009
6.16001
-9.16463
18.4814
-11.5142
26.431
-22.249
21.0227
-22.5403
16.8969
-13.4152
13.7394
-3.2886
12.4722
4.06697
10.9737
5.36763
6.7828
1.83009
1.49532
0.057447
2.37663
0.97957
37.1643
1.55255
85.874
34.8777
83.3191
47.9297
72.7315
51.1299
60.8278
57.2042
47.4822
67.209
31.3527
77.5112
17.5141
77.5663
11.677
66.9048
12.485
57.0254
25.6972
49.8681
30.7733
39.194
2.94712
18.4918
-8.56702
10.6808
-2.13011
16.3299
0.252291
16.7759
1.1274
16.0592
1.32617
15.1899
1.18594
14.4379
0.866483
13.8701
0.453478
13.496
13.311
0.247991
3.61668
0.48387
3.56413
0.699438
3.46323
0.890014
3.3212
1.0545
3.14696
1.19464
2.94973
1.3139
2.73812
1.41653
2.51951
1.50679
2.29987
1.58855
2.08379
1.66508
1.87457
1.73904
1.6745
1.81252
1.48497
1.88718
1.30681
1.96429
1.1404
2.04492
0.985897
2.12983
0.843356
2.21958
0.712805
2.31448
0.594388
2.41455
0.488462
2.5195
0.395641
2.6286
0.316807
2.74056
0.253046
2.85344
0.205487
2.96458
0.175011
3.0708
0.161766
3.16883
0.164524
3.25618
0.180137
3.33213
0.203587
3.39798
0.229337
3.45665
0.253041
3.51148
0.27288
3.56516
0.289633
3.61904
0.305998
3.67275
0.325532
3.72452
0.351457
3.77167
0.385646
3.81149
0.428153
3.84183
0.477369
3.8615
0.530539
3.87041
0.584419
3.86931
0.636067
3.85937
0.683461
3.84161
0.725481
3.81684
0.761393
3.78578
0.790284
3.74944
0.810777
3.70935
0.821123
3.66766
0.819618
3.62698
0.805129
3.59003
0.777422
3.55937
0.737177
3.53714
0.685818
3.52499
0.62528
3.52411
0.557754
3.53521
0.485474
3.55867
0.410617
3.59459
0.335269
3.64285
0.261429
3.70309
0.191108
3.77469
0.126451
3.85662
0.0697614
3.94718
0.0235427
4.04389
-0.00965735
4.14344
-0.0276643
4.24183
-0.0293134
4.33499
-0.0151815
4.41978
0.0119401
4.49485
0.0472632
4.56083
0.0853905
4.61997
0.121792
4.67528
0.153895
4.72959
0.181325
4.7849
0.205515
4.84215
0.228767
4.90125
0.253523
4.96158
0.28168
5.02224
0.314336
5.08259
0.351772
5.14248
0.393549
5.2027
0.438717
5.26555
0.486063
5.33524
0.53469
5.41851
0.584843
5.52494
0.638777
5.66675
0.701395
5.85458
0.778269
6.07709
0.865192
6.25434
0.918628
6.27651
0.86152
6.19812
0.720222
6.13293
0.584573
6.09665
0.470887
6.07444
0.367123
6.05827
0.265919
6.04556
0.164263
6.03575
0.0607132
6.02881
-0.0458325
6.02482
-0.156429
6.02378
-0.272277
6.02563
-0.394817
6.03017
-0.525718
6.03713
-0.666989
6.04609
-0.821074
6.05663
-0.990922
6.06828
-1.18011
6.08051
-1.39303
6.09278
-1.635
6.10452
-1.91247
6.11496
-2.23331
6.12272
-2.60726
6.12524
-3.04649
6.11704
-3.56632
6.08558
-4.18575
6.00026
-4.92603
5.78217
-5.80209
5.22374
-6.79167
3.81047
-7.75138
7.74658
-8.31083
26.1397
-12.9495
30.1477
-10.195
27.0235
-1.34604
21.095
-0.551992
13.7729
3.54426
7.43614
8.72766
5.01015
16.3469
2.41745
25.3258
2.9496
39.3885
70.4895
66.0206
98.9259
74.2982
86.5193
60.3364
78.8057
58.8433
70.8327
65.177
57.7844
80.2574
31.4079
103.888
6.85256
102.122
1.79763
71.9598
5.32779
53.4952
15.023
40.173
10.0712
27.2441
-4.86387
15.0186
-2.91792
13.5551
-1.68413
15.0961
-0.464385
15.5562
0.258075
15.3368
0.574112
14.8739
0.618169
14.3938
0.492358
13.9959
0.268557
13.7198
13.5796
0.195443
3.59122
0.382966
3.54368
0.557413
3.4517
0.715771
3.3207
0.857281
3.15766
0.983026
2.97025
1.09529
2.76606
1.19689
2.5521
1.29071
2.33442
1.37934
2.11792
1.465
1.90638
1.54952
1.70251
1.63436
1.5081
1.72076
1.32423
1.8098
1.15152
1.90237
0.990207
1.99928
0.840391
2.10117
0.70216
2.20855
0.575768
2.32173
0.461761
2.44066
0.361074
2.56484
0.275073
2.693
0.205545
2.82296
0.154556
2.95134
0.12415
3.07356
0.115656
3.18444
0.128464
3.27963
0.158586
3.35788
0.197902
3.42168
0.237084
3.47649
0.268854
3.52823
0.290874
3.58153
0.305243
3.63857
0.317106
3.69868
0.332863
3.75871
0.358205
3.81417
0.396347
3.8607
0.44724
3.895
0.508194
3.91538
0.574805
3.92206
0.641966
3.91671
0.705239
3.90139
0.762248
3.87753
0.812473
3.84573
0.856006
3.80627
0.892302
3.75978
0.919599
3.70784
0.935163
3.65317
0.936185
3.59927
0.920788
3.54978
0.888552
3.50801
0.840502
3.4766
0.778722
3.45747
0.705898
3.45183
0.624908
3.46036
0.538547
3.48333
0.449387
3.52075
0.359754
3.57253
0.27181
3.63843
0.187684
3.718
0.109728
3.8104
0.0406975
3.91398
-0.0161324
4.02589
-0.0570082
4.14179
-0.0782435
4.25596
-0.0772785
4.36211
-0.0541607
4.45511
-0.0128724
4.53298
0.0389117
4.59723
0.0922446
4.65207
0.139888
4.70271
0.178371
4.75378
0.207983
4.80815
0.23183
4.86691
0.254313
4.92941
0.279546
4.99424
0.310486
5.05968
0.348663
5.12437
0.394473
5.18764
0.447326
5.25004
0.505853
5.31418
0.568176
5.3854
0.632671
5.47244
0.69926
5.58756
0.770756
5.74362
0.852248
5.9415