/*--------------------------------*- C++ -*----------------------------------*\
| =========                 |                                                 |
| \\      /  F ield         | OpenFOAM: The Open Source CFD Toolbox           |
|  \\    /   O peration     | Version:  2.1.0                                 |
|   \\  /    A nd           | Web:      www.OpenFOAM.org                      |
|    \\/     M anipulation  |                                                 |
\*---------------------------------------------------------------------------*/
FoamFile
{
    version     2.0;
    format      ascii;
    class       volScalarField;
    location    "20075";
    object      po;
}
// * * * * * * * * * * * * * * * * * * * * * * * * * * * * * * * * * * * * * //

dimensions      [1 -1 -2 0 0 0 0];

internalField   nonuniform List<scalar> 
15000
(
6698.84
6680.25
6669.03
6661.25
6655.28
6650.32
6645.97
6642.01
6638.35
6634.9
6631.61
6628.44
6625.37
6622.37
6619.42
6616.5
6613.6
6610.71
6607.82
6604.91
6601.99
6599.03
6596.05
6593.02
6589.96
6586.84
6583.69
6580.49
6577.24
6573.94
6570.6
6567.21
6563.78
6560.31
6556.8
6553.26
6549.68
6546.08
6542.45
6538.8
6535.13
6531.44
6527.74
6524.03
6520.31
6516.59
6512.86
6509.12
6505.39
6501.65
6497.9
6494.15
6490.39
6486.63
6482.84
6479.04
6475.22
6471.37
6467.49
6463.58
6459.63
6455.64
6451.61
6447.53
6443.39
6439.21
6434.97
6430.68
6426.34
6421.94
6417.48
6412.97
6408.41
6403.79
6399.11
6394.39
6389.6
6384.77
6379.88
6374.93
6369.93
6364.86
6359.73
6354.54
6349.26
6343.91
6338.46
6332.91
6327.23
6321.4
6315.39
6309.15
6302.63
6295.82
6288.81
6281.82
6274.98
6268.21
6261.47
6254.71
6247.91
6241.06
6234.13
6227.1
6219.96
6212.68
6205.24
6197.6
6189.73
6181.6
6173.17
6164.4
6155.24
6145.64
6135.55
6124.94
6113.76
6101.99
6089.6
6076.6
6062.96
6048.66
6033.68
6017.91
6001.24
5983.51
5964.54
5944.17
5922.37
5899.28
5875.26
5850.67
5825.84
5801.05
5776.58
5752.69
5729.61
5707.45
5686.29
5666.23
5647.46
5630.21
5614.7
5601.09
5589.48
5579.9
5572.32
5566.71
5563
5561.15
6680.21
6672.88
6665.56
6659.34
6654.07
6649.46
6645.31
6641.49
6637.92
6634.54
6631.31
6628.18
6625.15
6622.18
6619.25
6616.36
6613.48
6610.6
6607.73
6604.83
6601.92
6598.97
6595.99
6592.97
6589.91
6586.81
6583.65
6580.45
6577.2
6573.91
6570.56
6567.18
6563.75
6560.27
6556.76
6553.22
6549.64
6546.04
6542.4
6538.75
6535.08
6531.39
6527.68
6523.97
6520.25
6516.53
6512.8
6509.06
6505.33
6501.59
6497.85
6494.1
6490.34
6486.58
6482.8
6479
6475.18
6471.34
6467.46
6463.56
6459.61
6455.62
6451.59
6447.51
6443.38
6439.2
6434.96
6430.67
6426.33
6421.93
6417.47
6412.96
6408.39
6403.77
6399.1
6394.37
6389.59
6384.75
6379.86
6374.91
6369.9
6364.84
6359.71
6354.51
6349.24
6343.88
6338.43
6332.88
6327.2
6321.36
6315.33
6309.07
6302.52
6295.68
6288.69
6281.77
6274.96
6268.22
6261.5
6254.75
6247.97
6241.13
6234.22
6227.22
6220.1
6212.85
6205.43
6197.83
6190
6181.91
6173.52
6164.79
6155.67
6146.12
6136.08
6125.5
6114.35
6102.6
6090.23
6077.23
6063.61
6049.36
6034.45
6018.81
6002.31
5984.76
5965.93
5945.61
5923.65
5900.22
5875.83
5850.91
5825.79
5800.73
5776
5751.89
5728.69
5706.46
5685.18
5664.94
5645.95
5628.48
5612.79
5599.09
5587.45
5577.89
5570.36
5564.8
5561.13
5559.31
6668.92
6665.49
6660.93
6656.31
6651.94
6647.88
6644.08
6640.5
6637.1
6633.85
6630.72
6627.68
6624.71
6621.8
6618.93
6616.07
6613.23
6610.39
6607.54
6604.67
6601.78
6598.85
6595.89
6592.88
6589.83
6586.73
6583.58
6580.39
6577.14
6573.84
6570.5
6567.11
6563.68
6560.2
6556.69
6553.14
6549.56
6545.95
6542.31
6538.65
6534.97
6531.28
6527.57
6523.85
6520.13
6516.4
6512.67
6508.94
6505.21
6501.47
6497.73
6493.99
6490.24
6486.48
6482.71
6478.92
6475.11
6471.27
6467.41
6463.51
6459.57
6455.59
6451.56
6447.49
6443.36
6439.18
6434.95
6430.66
6426.31
6421.91
6417.45
6412.93
6408.36
6403.74
6399.06
6394.33
6389.54
6384.7
6379.81
6374.86
6369.85
6364.78
6359.65
6354.45
6349.18
6343.82
6338.37
6332.81
6327.12
6321.27
6315.21
6308.91
6302.3
6295.45
6288.51
6281.68
6274.94
6268.24
6261.54
6254.83
6248.08
6241.28
6234.41
6227.45
6220.38
6213.18
6205.82
6198.28
6190.52
6182.51
6174.21
6165.57
6156.55
6147.09
6137.14
6126.64
6115.55
6103.83
6091.47
6078.48
6064.89
6050.72
6035.97
6020.57
6004.42
5987.28
5968.83
5948.67
5926.41
5902.13
5876.92
5851.35
5825.68
5800.1
5774.8
5750.17
5726.81
5704.5
5683.04
5662.41
5642.9
5624.96
5608.92
5595.02
5583.34
5573.85
5566.44
5560.99
5557.42
5555.65
6661.04
6659.16
6656.2
6652.79
6649.26
6645.77
6642.38
6639.1
6635.93
6632.86
6629.87
6626.95
6624.08
6621.25
6618.45
6615.66
6612.88
6610.08
6607.27
6604.44
6601.58
6598.68
6595.73
6592.75
6589.71
6586.62
6583.48
6580.29
6577.04
6573.75
6570.41
6567.01
6563.58
6560.1
6556.58
6553.03
6549.44
6545.82
6542.17
6538.5
6534.82
6531.12
6527.4
6523.68
6519.95
6516.22
6512.49
6508.76
6505.02
6501.29
6497.56
6493.82
6490.08
6486.33
6482.57
6478.8
6475
6471.18
6467.32
6463.43
6459.51
6455.54
6451.52
6447.45
6443.33
6439.15
6434.92
6430.63
6426.28
6421.87
6417.41
6412.89
6408.32
6403.69
6399.01
6394.27
6389.48
6384.64
6379.74
6374.78
6369.77
6364.7
6359.56
6354.36
6349.08
6343.72
6338.26
6332.7
6326.99
6321.11
6315.02
6308.65
6302
6295.15
6288.31
6281.58
6274.91
6268.26
6261.61
6254.95
6248.25
6241.5
6234.69
6227.79
6220.79
6213.66
6206.39
6198.94
6191.29
6183.4
6175.23
6166.73
6157.86
6148.55
6138.75
6128.38
6117.38
6105.71
6093.35
6080.33
6066.74
6052.66
6038.12
6023.1
6007.51
5991.1
5973.45
5953.82
5931.19
5904.95
5878.38
5851.88
5825.5
5799.17
5772.93
5747.18
5723.86
5701.72
5680.05
5658.77
5638.28
5619.54
5602.89
5588.72
5577.06
5567.74
5560.55
5555.32
5551.9
5550.21
6654.93
6653.75
6651.7
6649.12
6646.27
6643.31
6640.33
6637.38
6634.47
6631.6
6628.79
6626.01
6623.27
6620.55
6617.84
6615.13
6612.41
6609.68
6606.93
6604.14
6601.32
6598.45
6595.54
6592.57
6589.55
6586.48
6583.35
6580.16
6576.92
6573.63
6570.28
6566.89
6563.45
6559.96
6556.44
6552.87
6549.27
6545.64
6541.99
6538.31
6534.61
6530.9
6527.17
6523.44
6519.71
6515.97
6512.24
6508.51
6504.78
6501.05
6497.32
6493.6
6489.87
6486.14
6482.39
6478.63
6474.85
6471.05
6467.21
6463.34
6459.43
6455.47
6451.46
6447.4
6443.29
6439.11
6434.88
6430.59
6426.24
6421.83
6417.37
6412.84
6408.26
6403.63
6398.94
6394.19
6389.39
6384.54
6379.63
6374.67
6369.65
6364.57
6359.43
6354.22
6348.94
6343.57
6338.11
6332.53
6326.8
6320.88
6314.74
6308.31
6301.62
6294.83
6288.1
6281.46
6274.87
6268.29
6261.7
6255.1
6248.47
6241.79
6235.05
6228.23
6221.32
6214.29
6207.13
6199.81
6192.3
6184.57
6176.57
6168.27
6159.6
6150.51
6140.92
6130.74
6119.88
6108.27
6095.88
6082.76
6069.1
6055.05
6040.74
6026.21
6011.42
5996.18
5980.04
5961.97
5939.6
5908.11
5879.76
5852.29
5825.26
5798.15
5770.56
5741.77
5719.75
5698.45
5676.68
5654.33
5631.91
5612.03
5594.39
5579.91
5568.43
5559.49
5552.71
5547.83
5544.65
5543.09
6649.8
6648.97
6647.46
6645.46
6643.14
6640.64
6638.05
6635.41
6632.77
6630.13
6627.51
6624.9
6622.3
6619.7
6617.1
6614.48
6611.85
6609.2
6606.51
6603.78
6601
6598.18
6595.3
6592.37
6589.37
6586.31
6583.19
6580.01
6576.78
6573.48
6570.13
6566.73
6563.29
6559.79
6556.26
6552.68
6549.07
6545.43
6541.76
6538.06
6534.35
6530.62
6526.89
6523.15
6519.4
6515.66
6511.92
6508.19
6504.46
6500.74
6497.03
6493.31
6489.6
6485.89
6482.16
6478.42
6474.67
6470.88
6467.07
6463.22
6459.33
6455.39
6451.4
6447.35
6443.24
6439.07
6434.84
6430.55
6426.2
6421.78
6417.31
6412.78
6408.19
6403.54
6398.85
6394.09
6389.28
6384.42
6379.5
6374.53
6369.5
6364.41
6359.27
6354.05
6348.76
6343.38
6337.9
6332.3
6326.53
6320.57
6314.36
6307.87
6301.19
6294.49
6287.89
6281.35
6274.83
6268.33
6261.81
6255.29
6248.73
6242.13
6235.48
6228.76
6221.96
6215.06
6208.04
6200.87
6193.54
6186
6178.23
6170.17
6161.78
6152.97
6143.68
6133.78
6123.14
6111.62
6099.13
6085.75
6071.83
6057.7
6043.58
6029.58
6015.77
6002.15
5988.57
5974.41
5957.11
5938.26
5888.96
5852.01
5823.38
5792.49
5757.97
5729.58
5714.91
5695.64
5673.88
5649.97
5623.01
5602.26
5582.74
5568.12
5557.25
5549.08
5542.98
5538.62
5535.79
5534.4
6645.23
6644.62
6643.45
6641.86
6639.96
6637.85
6635.6
6633.27
6630.89
6628.49
6626.07
6623.63
6621.19
6618.73
6616.25
6613.75
6611.21
6608.64
6606.03
6603.37
6600.65
6597.87
6595.04
6592.13
6589.16
6586.12
6583.02
6579.84
6576.61
6573.31
6569.96
6566.55
6563.1
6559.59
6556.05
6552.46
6548.83
6545.17
6541.48
6537.77
6534.04
6530.29
6526.54
6522.79
6519.03
6515.28
6511.54
6507.8
6504.08
6500.37
6496.66
6492.97
6489.28
6485.58
6481.88
6478.17
6474.45
6470.69
6466.91
6463.08
6459.22
6455.3
6451.32
6447.29
6443.19
6439.03
6434.8
6430.5
6426.15
6421.72
6417.24
6412.7
6408.1
6403.44
6398.73
6393.97
6389.15
6384.27
6379.34
6374.36
6369.31
6364.21
6359.05
6353.82
6348.52
6343.12
6337.63
6331.99
6326.19
6320.17
6313.89
6307.36
6300.73
6294.16
6287.67
6281.22
6274.8
6268.37
6261.94
6255.5
6249.03
6242.53
6235.99
6229.38
6222.71
6215.95
6209.09
6202.1
6194.97
6187.67
6180.16
6172.41
6164.36
6155.93
6147.04
6137.55
6127.27
6115.95
6103.28
6089.26
6074.77
6060.36
6046.3
6032.77
6019.94
6008.07
5997.68
5989.98
5977.72
5979.48
5921.6
5858.41
5809.35
5774.89
5749.44
5727.39
5711.89
5691.91
5666.69
5635.51
5607.9
5591.26
5566.2
5552.56
5543.37
5536.59
5531.53
5527.88
5525.5
5524.33
6641.04
6640.55
6639.63
6638.35
6636.77
6634.99
6633.05
6631
6628.88
6626.7
6624.49
6622.24
6619.96
6617.65
6615.31
6612.93
6610.5
6608.03
6605.5
6602.91
6600.26
6597.54
6594.75
6591.88
6588.94
6585.92
6582.82
6579.66
6576.42
6573.13
6569.77
6566.35
6562.88
6559.37
6555.8
6552.2
6548.55
6544.87
6541.16
6537.43
6533.67
6529.91
6526.13
6522.36
6518.59
6514.83
6511.08
6507.34
6503.62
6499.92
6496.23
6492.55
6488.89
6485.22
6481.56
6477.88
6474.19
6470.47
6466.72
6462.93
6459.09
6455.2
6451.25
6447.23
6443.14
6438.98
6434.76
6430.46
6426.09
6421.66
6417.16
6412.61
6407.99
6403.32
6398.6
6393.82
6388.98
6384.09
6379.14
6374.14
6369.08
6363.97
6358.79
6353.54
6348.22
6342.81
6337.28
6331.61
6325.76
6319.67
6313.32
6306.79
6300.27
6293.83
6287.45
6281.1
6274.76
6268.42
6262.08
6255.74
6249.37
6242.98
6236.55
6230.07
6223.54
6216.94
6210.26
6203.48
6196.58
6189.55
6182.35
6174.95
6167.3
6159.35
6151.01
6142.12
6132.46
6121.6
6108.8
6093.24
6077.63
6062.66
6048.49
6035.25
6023.13
6012.53
6004.1
5999.02
5992.59
5986.13
5934.59
5856.95
5798.2
5757.91
5726.81
5702.27
5683.01
5662.45
5647.37
5621.8
5595.22
5561.56
5538.23
5532.56
5527.06
5522.39
5518.66
5515.86
5514
5513.07
6637.08
6636.69
6635.95
6634.9
6633.6
6632.09
6630.42
6628.64
6626.76
6624.81
6622.81
6620.75
6618.64
6616.49
6614.29
6612.04
6609.74
6607.37
6604.94
6602.43
6599.85
6597.19
6594.45
6591.62
6588.71
6585.71
6582.63
6579.46
6576.23
6572.92
6569.55
6566.13
6562.65
6559.12
6555.54
6551.91
6548.24
6544.54
6540.8
6537.04
6533.25
6529.46
6525.66
6521.86
6518.08
6514.3
6510.54
6506.8
6503.09
6499.39
6495.72
6492.07
6488.43
6484.8
6481.17
6477.54
6473.89
6470.22
6466.51
6462.76
6458.96
6455.1
6451.17
6447.17
6443.1
6438.95
6434.72
6430.41
6426.03
6421.59
6417.07
6412.5
6407.87
6403.18
6398.44
6393.64
6388.79
6383.88
6378.91
6373.89
6368.81
6363.67
6358.47
6353.2
6347.86
6342.41
6336.85
6331.14
6325.22
6319.05
6312.67
6306.2
6299.81
6293.49
6287.22
6280.96
6274.72
6268.48
6262.24
6255.99
6249.73
6243.46
6237.15
6230.82
6224.44
6218.01
6211.53
6204.97
6198.33
6191.59
6184.73
6177.73
6170.56
6163.17
6155.51
6147.46
6138.85
6129.19
6117.08
6097.25
6079.87
6064.15
6049.76
6036.61
6024.82
6014.79
6007.18
6003.55
5999.67
5990.24
5924.74
5836.58
5768.61
5716.35
5676.38
5647.37
5627.2
5612.29
5605.05
5580.53
5540.84
5512.55
5513.89
5512.41
5509.93
5507.26
5504.84
5502.91
5501.58
5500.9
6633.29
6632.98
6632.38
6631.52
6630.44
6629.17
6627.75
6626.2
6624.56
6622.84
6621.04
6619.18
6617.25
6615.27
6613.22
6611.11
6608.93
6606.68
6604.35
6601.93
6599.43
6596.84
6594.15
6591.37
6588.49
6585.5
6582.43
6579.27
6576.02
6572.71
6569.33
6565.89
6562.39
6558.84
6555.25
6551.6
6547.9
6544.17
6540.4
6536.6
6532.78
6528.95
6525.12
6521.3
6517.48
6513.69
6509.92
6506.18
6502.46
6498.78
6495.13
6491.51
6487.91
6484.32
6480.74
6477.15
6473.56
6469.93
6466.28
6462.58
6458.82
6455
6451.1
6447.13
6443.07
6438.92
6434.69
6430.37
6425.98
6421.51
6416.98
6412.38
6407.73
6403.02
6398.26
6393.44
6388.57
6383.63
6378.64
6373.59
6368.48
6363.32
6358.09
6352.79
6347.41
6341.94
6336.33
6330.55
6324.55
6318.32
6311.95
6305.61
6299.36
6293.15
6286.98
6280.82
6274.67
6268.53
6262.4
6256.26
6250.12
6243.96
6237.79
6231.6
6225.39
6219.14
6212.86
6206.54
6200.17
6193.74
6187.25
6180.69
6174.03
6167.27
6160.39
6153.38
6146.27
6139.23
6133.07
6114.59
6088.16
6067.14
6050.24
6036.5
6024.03
6013.05
6006.27
6004.78
6002.4
5965.23
5879.36
5796.04
5723.31
5662.48
5615
5583.65
5566.13
5554.46
5541.97
5516.27
5485.5
5482.55
5491.12
5493.25
5493
5491.87
5490.54
5489.36
5488.49
5488.04
6629.61
6629.36
6628.88
6628.18
6627.29
6626.23
6625.04
6623.72
6622.31
6620.8
6619.21
6617.55
6615.81
6613.99
6612.11
6610.14
6608.1
6605.97
6603.75
6601.43
6599.02
6596.5
6593.87
6591.13
6588.28
6585.31
6582.24
6579.07
6575.82
6572.49
6569.09
6565.63
6562.12
6558.55
6554.93
6551.26
6547.54
6543.77
6539.95
6536.11
6532.25
6528.38
6524.51
6520.65
6516.81
6512.99
6509.21
6505.46
6501.75
6498.08
6494.45
6490.86
6487.3
6483.77
6480.24
6476.72
6473.18
6469.62
6466.03
6462.39
6458.68
6454.91
6451.05
6447.11
6443.06
6438.92
6434.68
6430.34
6425.92
6421.43
6416.87
6412.25
6407.57
6402.84
6398.06
6393.21
6388.31
6383.35
6378.33
6373.25
6368.1
6362.9
6357.64
6352.3
6346.88
6341.36
6335.69
6329.84
6323.76
6317.5
6311.23
6305.03
6298.9
6292.8
6286.73
6280.67
6274.62
6268.59
6262.56
6256.53
6250.51
6244.48
6238.45
6232.42
6226.37
6220.31
6214.24
6208.16
6202.07
6195.97
6189.85
6183.73
6177.6
6171.49
6165.4
6159.4
6153.62
6148.4
6144.58
6136.84
6110.7
6080.55
6053.53
6032.43
6018.66
6011.22
6006.21
6003.8
6000.85
5930.36
5831.43
5744.91
5666.11
5595.27
5537.49
5506.08
5499.23
5497.43
5492.1
5477.08
5467.01
5471.87
5474.79
5476.47
5476.94
5476.68
5476.11
5475.49
5475
5474.73
6625.99
6625.8
6625.41
6624.86
6624.14
6623.28
6622.3
6621.2
6620.01
6618.72
6617.34
6615.87
6614.32
6612.69
6610.97
6609.16
6607.25
6605.26
6603.15
6600.95
6598.62
6596.18
6593.62
6590.93
6588.1
6585.15
6582.08
6578.89
6575.61
6572.26
6568.83
6565.36
6561.83
6558.25
6554.61
6550.91
6547.15
6543.34
6539.48
6535.58
6531.67
6527.74
6523.83
6519.93
6516.05
6512.2
6508.4
6504.64
6500.93
6497.28
6493.68
6490.13
6486.62
6483.14
6479.69
6476.23
6472.77
6469.29
6465.77
6462.2
6458.56
6454.84
6451.03
6447.12
6443.09
6438.95
6434.69
6430.33
6425.87
6421.34
6416.74
6412.09
6407.39
6402.64
6397.83
6392.96
6388.03
6383.04
6377.98
6372.85
6367.67
6362.42
6357.1
6351.72
6346.24
6340.66
6334.91
6328.97
6322.84
6316.64
6310.51
6304.45
6298.43
6292.43
6286.46
6280.5
6274.56
6268.63
6262.71
6256.8
6250.9
6245.01
6239.12
6233.24
6227.36
6221.49
6215.64
6209.8
6203.98
6198.2
6192.46
6186.78
6181.17
6175.67
6170.33
6165.2
6160.41
6156.15
6152.9
6149.79
6120.89
6081.9
6054.08
6028.89
6009.93
5994.88
5980.89
5964.41
5934.83
5856.06
5771.09
5686.07
5600.93
5515.02
5433.6
5403.96
5427.27
5443.94
5451.93
5449.84
5451.99
5458.32
5459.69
5460.92
5461.6
5461.81
5461.71
5461.49
5461.28
5461.15
6622.4
6622.25
6621.96
6621.53
6620.98
6620.31
6619.53
6618.65
6617.67
6616.6
6615.43
6614.17
6612.81
6611.36
6609.82
6608.17
6606.41
6604.55
6602.58
6600.48
6598.26
6595.91
6593.41
6590.77
6587.98
6585.04
6581.95
6578.73
6575.42
6572.02
6568.57
6565.07
6561.52
6557.93
6554.28
6550.55
6546.76
6542.89
6538.97
6535.01
6531.02
6527.04
6523.07
6519.11
6515.19
6511.31
6507.48
6503.7
6499.99
6496.36
6492.79
6489.29
6485.84
6482.44
6479.06
6475.69
6472.32
6468.93
6465.5
6462.01
6458.45
6454.8
6451.05
6447.17
6443.17
6439.03
6434.75
6430.34
6425.84
6421.25
6416.6
6411.91
6407.18
6402.4
6397.57
6392.68
6387.72
6382.69
6377.58
6372.41
6367.16
6361.85
6356.47
6351.02
6345.47
6339.8
6333.97
6327.95
6321.85
6315.78
6309.79
6303.85
6297.94
6292.05
6286.18
6280.32
6274.49
6268.67
6262.86
6257.07
6251.29
6245.53
6239.78
6234.05
6228.34
6222.66
6217.01
6211.41
6205.86
6200.39
6195.01
6189.74
6184.63
6179.71
6175.03
6170.67
6166.67
6162.89
6158.19
6157.05
6133.22
6089.09
6052.01
6019.11
5989.83
5962.3
5933.73
5900.06
5854.44
5787.96
5710.82
5627.34
5536.53
5430.26
5342.54
5324.97
5361.95
5399.11
5422.52
5432.44
5438.03
5443.63
5444.75
5445.9
5446.74
5447.23
5447.45
5447.49
5447.47
5447.44
6618.8
6618.7
6618.49
6618.19
6617.8
6617.31
6616.74
6616.07
6615.31
6614.46
6613.5
6612.45
6611.3
6610.04
6608.67
6607.19
6605.59
6603.88
6602.04
6600.06
6597.95
6595.69
6593.28
6590.69
6587.93
6584.99
6581.88
6578.61
6575.22
6571.77
6568.27
6564.75
6561.2
6557.61
6553.95
6550.2
6546.36
6542.43
6538.44
6534.39
6530.32
6526.26
6522.22
6518.21
6514.24
6510.31
6506.44
6502.64
6498.92
6495.3
6491.77
6488.33
6484.96
6481.64
6478.36
6475.1
6471.83
6468.55
6465.22
6461.83
6458.36
6454.8
6451.12
6447.3
6443.32
6439.17
6434.86
6430.39
6425.81
6421.14
6416.44
6411.7
6406.94
6402.14
6397.29
6392.38
6387.38
6382.31
6377.15
6371.9
6366.58
6361.18
6355.72
6350.17
6344.54
6338.77
6332.84
6326.83
6320.85
6314.94
6309.08
6303.24
6297.44
6291.65
6285.88
6280.13
6274.4
6268.69
6262.99
6257.32
6251.67
6246.03
6240.42
6234.84
6229.3
6223.79
6218.35
6212.97
6207.67
6202.49
6197.44
6192.56
6187.89
6183.49
6179.42
6175.79
6172.73
6170.53
6165.71
6163.02
6137.21
6089.24
6045.74
6005.71
5967.97
5930.76
5891.68
5847.65
5794.9
5730.51
5656.89
5575.94
5487.57
5389.19
5326.95
5319.01
5332.08
5368.04
5400.43
5417.13
5420.39
5428.18
5429.78
5431.2
5432.24
5432.93
5433.34
5433.56
5433.67
5433.7
6615.15
6615.09
6614.98
6614.8
6614.57
6614.27
6613.9
6613.46
6612.93
6612.3
6611.57
6610.73
6609.79
6608.72
6607.54
6606.23
6604.8
6603.24
6601.54
6599.7
6597.71
6595.56
6593.23
6590.71
6587.98
6585.04
6581.88
6578.53
6575.04
6571.49
6567.93
6564.4
6560.86
6557.28
6553.64
6549.88
6545.99
6541.99
6537.89
6533.73
6529.55
6525.39
6521.28
6517.2
6513.17
6509.19
6505.26
6501.43
6497.7
6494.1
6490.61
6487.24
6483.96
6480.75
6477.59
6474.45
6471.31
6468.14
6464.94
6461.67
6458.31
6454.85
6451.26
6447.51
6443.57
6439.42
6435.05
6430.48
6425.78
6421.01
6416.22
6411.43
6406.65
6401.85
6396.99
6392.05
6387.03
6381.9
6376.66
6371.33
6365.91
6360.39
6354.81
6349.14
6343.39
6337.52
6331.59
6325.69
6319.86
6314.09
6308.34
6302.62
6296.92
6291.23
6285.56
6279.91
6274.29
6268.69
6263.11
6257.55
6252.02
6246.51
6241.04
6235.6
6230.21
6224.87
6219.61
6214.43
6209.37
6204.45
6199.71
6195.17
6190.9
6186.94
6183.38
6180.32
6177.92
6176.41
6173.44
6168.47
6138.28
6084.92
6036.01
5990.03
5945.59
5901.07
5854.59
5803.97
5747.01
5682.3
5610.29
5531.95
5448.64
5363.83
5317.36
5312.76
5310.91
5340.53
5382.19
5403.75
5404.9
5411.83
5414.99
5416.86
5418.09
5418.91
5419.43
5419.75
5419.93
5420
6611.42
6611.41
6611.38
6611.34
6611.28
6611.18
6611.03
6610.82
6610.52
6610.14
6609.64
6609.03
6608.29
6607.43
6606.43
6605.31
6604.05
6602.65
6601.1
6599.41
6597.55
6595.52
6593.29
6590.85
6588.18
6585.24
6582.02
6578.51
6574.84
6571.13
6567.52
6563.98
6560.48
6556.97
6553.37
6549.62
6545.68
6541.57
6537.34
6533.02
6528.7
6524.43
6520.23
6516.1
6512
6507.94
6503.95
6500.05
6496.3
6492.71
6489.28
6485.99
6482.83
6479.75
6476.73
6473.73
6470.74
6467.72
6464.66
6461.53
6458.31
6454.98
6451.5
6447.85
6443.96
6439.81
6435.36
6430.64
6425.75
6420.81
6415.92
6411.08
6406.3
6401.51
6396.67
6391.72
6386.66
6381.46
6376.14
6370.69
6365.12
6359.45
6353.69
6347.87
6341.99
6336.11
6330.3
6324.56
6318.88
6313.23
6307.6
6301.98
6296.38
6290.79
6285.22
6279.68
6274.16
6268.67
6263.2
6257.76
6252.34
6246.96
6241.62
6236.32
6231.07
6225.88
6220.78
6215.79
6210.93
6206.24
6201.76
6197.52
6193.58
6189.99
6186.84
6184.2
6182.21
6181.05
6179.22
6171.92
6133.74
6076.15
6023.33
5972.83
5923.27
5873.35
5821.65
5766.63
5706.86
5641.4
5570.01
5492.94
5411.22
5336.04
5306.76
5306.42
5305.34
5327.29
5368.13
5390.42
5396.61
5399.25
5401.5
5403.16
5404.35
5405.18
5405.73
5406.09
5406.29
5406.38
6607.57
6607.61
6607.68
6607.78
6607.89
6608.01
6608.1
6608.15
6608.11
6607.98
6607.73
6607.35
6606.83
6606.17
6605.38
6604.43
6603.35
6602.12
6600.74
6599.2
6597.49
6595.6
6593.5
6591.16
6588.56
6585.64
6582.36
6578.57
6574.61
6570.63
6566.95
6563.44
6560.05
6556.68
6553.2
6549.49
6545.46
6541.22
6536.8
6532.27
6527.72
6523.33
6519.07
6514.89
6510.72
6506.57
6502.47
6498.47
6494.67
6491.09
6487.74
6484.57
6481.55
6478.63
6475.78
6472.96
6470.14
6467.28
6464.38
6461.41
6458.35
6455.17
6451.85
6448.34
6444.56
6440.43
6435.87
6430.88
6425.69
6420.49
6415.46
6410.6
6405.85
6401.13
6396.34
6391.39
6386.28
6381.01
6375.57
6369.97
6364.2
6358.3
6352.31
6346.34
6340.45
6334.68
6329.02
6323.43
6317.89
6312.36
6306.84
6301.33
6295.82
6290.33
6284.86
6279.42
6274
6268.62
6263.26
6257.93
6252.64
6247.38
6242.15
6236.98
6231.86
6226.81
6221.85
6217.01
6212.32
6207.82
6203.56
6199.57
6195.91
6192.62
6189.77
6187.43
6185.69
6184.67
6183.59
6164.3
6116.59
6062.62
6008.34
5954.68
5901.31
5847.42
5792.02
5734.02
5672.41
5606.41
5535.43
5458.58
5373.35
5311.97
5301.58
5301.06
5301.69
5316.42
5353.99
5378.44
5385.71
5387.05
5388.6
5389.94
5390.97
5391.72
5392.24
5392.57
5392.76
5392.85
6603.55
6603.64
6603.82
6604.07
6604.39
6604.75
6605.12
6605.44
6605.69
6605.84
6605.85
6605.71
6605.42
6604.97
6604.37
6603.62
6602.72
6601.66
6600.45
6599.08
6597.54
6595.81
6593.86
6591.65
6589.18
6586.3
6583.13
6578.74
6574.34
6569.73
6566.16
6562.73
6559.54
6556.42
6553.19
6549.6
6545.42
6540.97
6536.32
6531.47
6526.54
6522.02
6517.77
6513.59
6509.38
6505.1
6500.81
6496.64
6492.76
6489.2
6485.95
6482.94
6480.11
6477.39
6474.75
6472.13
6469.5
6466.83
6464.11
6461.32
6458.44
6455.45
6452.33
6449.01
6445.41
6441.38
6436.7
6431.22
6425.54
6419.89
6414.75
6409.9
6405.27
6400.71
6396.04
6391.09
6385.91
6380.53
6374.95
6369.15
6363.15
6356.98
6350.75
6344.7
6338.86
6333.21
6327.7
6322.28
6316.88
6311.49
6306.08
6300.67
6295.25
6289.85
6284.47
6279.13
6273.82
6268.54
6263.3
6258.08
6252.9
6247.75
6242.64
6237.58
6232.58
6227.64
6222.8
6218.07
6213.52
6209.17
6205.09
6201.3
6197.86
6194.81
6192.19
6190.06
6188.43
6187.36
6186.46
6159.91
6105.68
6049.41
5992.73
5936.25
5879.85
5823.01
5765
5705.02
5642.36
5576.41
5506.69
5432.62
5352.86
5304.32
5298.37
5297.79
5299.01
5313.53
5345.91
5366.44
5373.58
5374.66
5375.91
5377.01
5377.88
5378.5
5378.92
5379.19
5379.34
5379.41
6599.33
6599.47
6599.76
6600.19
6600.74
6601.38
6602.06
6602.71
6603.29
6603.73
6604.02
6604.13
6604.07
6603.84
6603.44
6602.88
6602.16
6601.28
6600.25
6599.06
6597.71
6596.17
6594.39
6592.32
6590.09
6587.18
6585.03
6580.21
6572.93
6567.72
6565.14
6561.69
6558.87
6556.23
6553.48
6550.22
6545.57
6540.86
6535.96
6530.68
6524.85
6520.38
6516.33
6512.27
6508.02
6503.57
6498.98
6494.47
6490.45
6486.95
6483.86
6481.07
6478.48
6476.02
6473.62
6471.24
6468.83
6466.38
6463.85
6461.25
6458.57
6455.8
6452.92
6449.89
6446.6
6442.83
6438.19
6431.65
6425.27
6418.69
6413.65
6408.86
6404.49
6400.28
6395.87
6390.86
6385.57
6380.08
6374.38
6368.44
6362.23
6355.72
6349.06
6342.94
6337.12
6331.62
6326.32
6321.1
6315.88
6310.63
6305.33
6300
6294.66
6289.34
6284.05
6278.81
6273.61
6268.44
6263.3
6258.19
6253.12
6248.08
6243.08
6238.13
6233.23
6228.38
6223.62
6218.97
6214.51
6210.27
6206.32
6202.69
6199.42
6196.56
6194.14
6192.18
6190.62
6189.04
6188.19
6157.32
6096.83
6036.61
5976.91
5917.74
5858.85
5799.77
5739.93
5678.71
5615.6
5550.18
5482.32
5412.33
5341.05
5301.38
5297.16
5297.31
5298.37
5302.42
5329.33
5352.6
5360.7
5362.1
5363.36
5364.33
5365.02
5365.48
5365.76
5365.92
5366
5366.03
6594.84
6595.04
6595.45
6596.07
6596.89
6597.86
6598.92
6599.97
6600.91
6601.69
6602.27
6602.64
6602.82
6602.79
6602.59
6602.21
6601.67
6600.98
6600.13
6599.14
6597.99
6596.68
6595.11
6593.05
6591.57
6589.17
6585.73
6578.33
6571.01
6566.42
6563
6559.95
6557.98
6556.07
6554.2
6552.17
6548.39
6541.58
6533.9
6527.09
6521.7
6518.21
6514.82
6511.05
6506.81
6502.11
6496.99
6491.73
6487.56
6484.23
6481.42
6478.94
6476.68
6474.53
6472.42
6470.31
6468.16
6465.92
6463.6
6461.19
6458.71
6456.17
6453.58
6450.92
6448.11
6444.97
6441.39
6433.73
6423.2
6415.81
6412.2
6407.3
6403.45
6399.95
6396.19
6390.87
6385.42
6379.85
6374.1
6368.06
6361.63
6354.64
6346.88
6340.89
6335.07
6329.84
6324.86
6319.91
6314.91
6309.81
6304.62
6299.36
6294.06
6288.79
6283.58
6278.44
6273.36
6268.3
6263.28
6258.28
6253.31
6248.37
6243.48
6238.63
6233.82
6229.05
6224.32
6219.7
6215.26
6211.08
6207.22
6203.71
6200.58
6197.87
6195.62
6193.91
6192.82
6191.04
6189.2
6154.17
6087.69
6023.3
5960.55
5898.95
5838.03
5777.29
5716.22
5654.32
5591.13
5526.37
5460.09
5393.32
5330.67
5299.95
5296.84
5296.9
5297.57
5300.21
5322.18
5341.29
5347.11
5349.68
5351.09
5351.92
5352.4
5352.64
5352.73
5352.73
5352.71
5352.69
6590.03
6590.29
6590.83
6591.65
6592.77
6594.16
6595.7
6597.23
6598.6
6599.75
6600.64
6601.27
6601.67
6601.85
6601.83
6601.63
6601.27
6600.75
6600.09
6599.29
6598.34
6597.33
6596.2
6594.51
6592.22
6585.77
6579.08
6572.02
6566.91
6563.1
6560.5
6558.56
6556.96
6555.82
6555.02
6553.57
6548.16
6539.19
6530.49
6523.15
6519.03
6515.87
6513.61
6510.22
6506
6500.99
6495.07
6487.8
6483.78
6480.91
6478.58
6476.55
6474.7
6472.93
6471.17
6469.38
6467.49
6465.5
6463.37
6461.14
6458.84
6456.51
6454.2
6451.96
6449.77
6447.38
6444.24
6432.66
6419.27
6412.02
6408.39
6404.6
6402
6399.85
6398.11
6394.08
6385.94
6378.53
6374.73
6367.59
6357.51
6349.01
6342.94
6338.67
6332.43
6327.81
6323.37
6318.79
6314.03
6309.07
6303.97
6298.74
6293.44
6288.16
6283.04
6278.03
6273.07
6268.14
6263.22
6258.33
6253.45
6248.62
6243.84
6239.1
6234.39
6229.66
6224.91
6220.25
6215.77
6211.56
6207.76
6204.36
6201.33
6198.71
6196.57
6195
6194.1
6192.81
6189.67
6148.85
6076.47
6008.37
5943.03
5879.47
5817.03
5755.15
5693.36
5631.19
5568.24
5504.1
5438.33
5370.21
5315.54
5297.47
5296.45
5296.49
5296.5
5298.39
5317.9
5334.65
5336.78
5338.41
5339.39
5339.88
5340.02
5339.95
5339.77
5339.58
5339.41
5339.32
6584.84
6585.15
6585.8
6586.83
6588.29
6590.19
6592.38
6594.54
6596.43
6597.98
6599.17
6600.06
6600.66
6601.03
6601.18
6601.14
6600.94
6600.6
6600.12
6599.5
6598.65
6598
6596.66
6590.04
6582.93
6574.15
6567.62
6562.35
6558.68
6556.57
6556.28
6557.04
6555.86
6555.16
6555.02
6553.7
6546.31
6534.47
6524.36
6516.18
6510.37
6509.88
6510.43
6508.76
6503.87
6496.22
6487.43
6480.54
6478.76
6476.98
6475.37
6473.93
6472.57
6471.25
6469.9
6468.46
6466.88
6465.13
6463.18
6461.09
6458.91
6456.72
6454.62
6452.77
6451.44
6449.48
6441.55
6424.9
6411.09
6402.55
6398.27
6397.85
6400.1
6399.4
6398.48
6393.48
6383
6371.66
6365.28
6359.85
6352.31
6345.54
6338.41
6332.62
6328.18
6325.6
6322.01
6317.86
6313.33
6308.5
6303.44
6298.2
6292.81
6287.39
6282.39
6277.56
6272.77
6267.97
6263.16
6258.35
6253.56
6248.82
6244.15
6239.53
6234.96
6230.31
6225.41
6220.61
6215.99
6211.64
6207.92
6204.62
6201.66
6199.07
6196.96
6195.43
6194.58
6193.44
6188.83
6137.94
6060.98
5990.66
5923.72
5858.89
5795.47
5732.93
5670.86
5608.85
5546.54
5483.47
5418.9
5351.39
5305.84
5296.49
5295.99
5296.1
5296.25
5297.31
5311.64
5325.99
5326.95
5327.79
5328.2
5328.18
5327.85
5327.37
5326.85
5326.38
5326.04
5325.86
6579.24
6579.57
6580.28
6581.47
6583.28
6585.82
6589
6592.03
6594.52
6596.46
6597.94
6599.04
6599.82
6600.34
6600.63
6600.74
6600.68
6600.5
6600.2
6599.82
6599.11
6596.9
6588.26
6576.13
6567.47
6560.28
6554.89
6551.09
6548.88
6548.24
6549.38
6552.76
6554.3
6554.52
6553.23
6551.63
6542.23
6528.02
6516.31
6505.77
6499.53
6502.92
6504.43
6501.18
6491.04
6480.27
6476.71
6474.38
6473.67
6472.81
6471.96
6471.15
6470.36
6469.55
6468.66
6467.63
6466.39
6464.88
6463.05
6461.03
6458.9
6456.72
6454.6
6452.88
6451.77
6450.24
6437.51
6415.23
6396.98
6383.55
6375
6373.94
6383.28
6392.59
6393.46
6384.03
6369.26
6356.8
6351.63
6348.56
6343.43
6339.08
6333.52
6328.82
6326.34
6324.38
6321.22
6317.33
6312.92
6308.15
6303.11
6297.81
6292.2
6286.19
6281.56
6277.06
6272.47
6267.8
6263.08
6258.34
6253.63
6248.97
6244.39
6239.93
6235.59
6231.22
6225.81
6220.79
6215.94
6211.09
6207.65
6204.56
6201.63
6198.93
6196.78
6195.18
6194.29
6193.28
6171.22
6108.76
6038.85
5969.58
5902.3
5836.91
5773.02
5710.26
5648.28
5586.82
5525.61
5464.32
5402.44
5339
5300.64
5295.21
5295.4
5295.68
5296.05
5297.91
5305.78
5316.38
5317.23
5317.62
5317.43
5316.77
5315.84
5314.82
5313.86
5313.07
5312.51
5312.23
6573.21
6573.51
6574.19
6575.39
6577.41
6580.72
6585.67
6589.98
6593.06
6595.32
6597.01
6598.26
6599.16
6599.79
6600.2
6600.41
6600.48
6600.42
6600.3
6599.32
6591.78
6582.49
6569.69
6558.73
6550.56
6544.6
6540.56
6538.23
6537.53
6538.11
6540.25
6545
6550.5
6547.61
6547.76
6547.76
6534.77
6519.09
6507.07
6497.13
6493.09
6497.77
6499.7
6490.66
6476.71
6467.33
6468.36
6468.7
6468.66
6468.57
6468.44
6468.29
6468.11
6467.86
6467.51
6466.95
6466.07
6464.87
6463
6460.96
6458.78
6456.48
6454.05
6452.32
6451.06
6448.69
6430.88
6401.53
6378.03
6359.69
6345.21
6338.61
6343.78
6349.17
6365.84
6365.93
6355.27
6348.88
6346.08
6342.64
6338.83
6336.41
6332.81
6329.12
6326.79
6323.51
6320.1
6316.54
6311.8
6306.85
6302.18
6296.67
6289.52
6283.63
6280.6
6276.63
6272.26
6267.69
6263.03
6258.32
6253.63
6249.03
6244.52
6240.21
6236.27
6233.15
6225.96
6221.11
6214.44
6209.14
6207.03
6204.32
6201.38
6198.24
6196.05
6194.22
6193.2
6191.72
6157.17
6087.03
6016.08
5946.52
5878.99
5813.41
5749.45
5686.79
5625.2
5564.53
5504.74
5445.79
5387.52
5329.34
5296.85
5293.94
5294.54
5295.15
5296.06
5297.8
5300.82
5306.31
5307.98
5308.02
5307.12
5305.65
5303.93
5302.21
5300.7
5299.52
5298.71
5298.31
6566.77
6566.97
6567.46
6568.38
6570.15
6573.84
6582.88
6589.04
6592.34
6594.66
6596.42
6597.75
6598.69
6599.4
6599.87
6600.15
6600.33
6600.37
6593.64
6585.36
6572.58
6561.16
6549.28
6538.55
6531.43
6527.02
6524.52
6523.76
6524.87
6526.44
6528.5
6531.36
6535.22
6531.75
6532.84
6531.74
6518.8
6506.48
6495.76
6486.51
6482.55
6484.55
6484.61
6477.04
6466.91
6460.9
6460.82
6463.03
6463.67
6464.31
6464.9
6465.41
6465.85
6466.23
6466.48
6466.49
6465.98
6465.34
6463.4
6460.56
6457.77
6455.01
6452.77
6451.33
6449.21
6443.36
6418.79
6382
6353.92
6331.98
6313.88
6305.5
6305.38
6298.67
6327.94
6355.87
6349.42
6346.32
6346.08
6342.42
6338.31
6335.34
6332.95
6330.71
6317.99
6307.15
6300.94
6295.84
6290.8
6285.96
6281.24
6276.07
6270.37
6265.51
6262
6258.47
6254.97