/*--------------------------------*- C++ -*----------------------------------*\
| =========                 |                                                 |
| \\      /  F ield         | OpenFOAM: The Open Source CFD Toolbox           |
|  \\    /   O peration     | Version:  2.1.0                                 |
|   \\  /    A nd           | Web:      www.OpenFOAM.org                      |
|    \\/     M anipulation  |                                                 |
\*---------------------------------------------------------------------------*/
FoamFile
{
    version     2.0;
    format      ascii;
    class       volScalarField;
    location    "20075";
    object      so;
}
// * * * * * * * * * * * * * * * * * * * * * * * * * * * * * * * * * * * * * //

dimensions      [0 0 0 0 0 0 0];

internalField   nonuniform List<scalar> 
15000
(
0.2
0.20001
0.200619
0.204839
0.215108
0.229654
0.24571
0.261696
0.276979
0.291365
0.304826
0.317399
0.329142
0.340115
0.350375
0.359977
0.368972
0.377411
0.385339
0.392799
0.399831
0.406477
0.412775
0.418757
0.424449
0.429875
0.435059
0.440021
0.44478
0.449353
0.453755
0.458
0.462103
0.466078
0.469934
0.473683
0.477335
0.480898
0.484382
0.487793
0.491138
0.494426
0.49766
0.500848
0.503992
0.5071
0.510173
0.513215
0.516228
0.519213
0.522175
0.525111
0.528025
0.530915
0.533783
0.536627
0.539447
0.542244
0.545017
0.547765
0.55049
0.553193
0.555874
0.558535
0.561179
0.563807
0.566424
0.569032
0.571636
0.574241
0.576852
0.579475
0.582116
0.584784
0.587487
0.590234
0.593037
0.595907
0.598862
0.601918
0.6051
0.608435
0.611964
0.615738
0.61983
0.624343
0.62943
0.635317
0.642362
0.651139
0.662598
0.678292
0.700396
0.73005
0.761933
0.78458
0.794931
0.798487
0.799564
0.799876
0.799965
0.79999
0.799997
0.799999
0.8
0.8
0.8
0.8
0.8
0.8
0.8
0.8
0.8
0.8
0.8
0.8
0.8
0.8
0.8
0.8
0.8
0.8
0.8
0.8
0.8
0.8
0.8
0.8
0.8
0.8
0.8
0.8
0.8
0.8
0.8
0.8
0.8
0.8
0.8
0.8
0.8
0.8
0.8
0.8
0.8
0.8
0.8
0.8
0.8
0.8
0.200011
0.200227
0.202217
0.208985
0.220919
0.235739
0.251376
0.266761
0.281463
0.295343
0.30838
0.320605
0.33206
0.342794
0.352855
0.362291
0.371149
0.379473
0.387303
0.394678
0.40164
0.408227
0.414475
0.420412
0.426064
0.431455
0.436607
0.44154
0.446271
0.450815
0.455189
0.459408
0.463487
0.467436
0.471268
0.474993
0.47862
0.48216
0.485619
0.489006
0.492329
0.495593
0.498805
0.50197
0.505095
0.508182
0.511236
0.51426
0.517257
0.520228
0.523176
0.526102
0.529007
0.531891
0.534754
0.537595
0.540415
0.543213
0.545989
0.548743
0.551475
0.554186
0.556878
0.559551
0.562209
0.564852
0.567486
0.570113
0.572738
0.575366
0.578003
0.580655
0.58333
0.586035
0.58878
0.591574
0.59443
0.597362
0.600388
0.603527
0.606806
0.610259
0.613928
0.617876
0.622187
0.62698
0.632436
0.638823
0.64657
0.656366
0.669341
0.687262
0.712164
0.743367
0.772382
0.789718
0.796745
0.799039
0.799724
0.799921
0.799978
0.799994
0.799998
0.8
0.8
0.8
0.8
0.8
0.8
0.8
0.8
0.8
0.8
0.8
0.8
0.8
0.8
0.8
0.8
0.8
0.8
0.8
0.8
0.8
0.8
0.8
0.8
0.8
0.8
0.8
0.8
0.8
0.8
0.8
0.8
0.8
0.8
0.8
0.8
0.8
0.8
0.8
0.8
0.8
0.8
0.8
0.8
0.8
0.8
0.8
0.200604
0.202187
0.207101
0.216581
0.229493
0.243998
0.258833
0.273353
0.287276
0.300496
0.312988
0.324763
0.335848
0.346275
0.35608
0.365303
0.373981
0.382152
0.389852
0.397118
0.403986
0.410494
0.416672
0.422546
0.428141
0.433479
0.438581
0.443466
0.448149
0.452647
0.456978
0.461156
0.465194
0.469103
0.472894
0.47658
0.480169
0.48367
0.487091
0.490441
0.493728
0.496957
0.500134
0.503267
0.50636
0.509418
0.512445
0.515443
0.518417
0.521368
0.524299
0.52721
0.530103
0.532977
0.535833
0.538669
0.541488
0.544286
0.547064
0.549822
0.552561
0.55528
0.557982
0.560666
0.563335
0.565992
0.56864
0.571284
0.573927
0.576575
0.579234
0.581912
0.584615
0.587353
0.590135
0.592972
0.595878
0.598869
0.601962
0.60518
0.608553
0.612118
0.615927
0.620049
0.624583
0.629671
0.635523
0.642466
0.651016
0.662014
0.676822
0.697403
0.725207
0.756666
0.781186
0.7935
0.798004
0.799416
0.799833
0.799953
0.799987
0.799996
0.799999
0.8
0.8
0.8
0.8
0.8
0.8
0.8
0.8
0.8
0.8
0.8
0.8
0.8
0.8
0.8
0.8
0.8
0.8
0.8
0.8
0.8
0.8
0.8
0.8
0.8
0.8
0.8
0.8
0.8
0.8
0.8
0.8
0.8
0.8
0.8
0.8
0.8
0.8
0.8
0.8
0.8
0.8
0.8
0.8
0.8
0.8
0.8
0.204695
0.208806
0.216437
0.22727
0.240084
0.253749
0.267539
0.281058
0.294105
0.306584
0.318461
0.329726
0.340386
0.350459
0.359968
0.368941
0.377409
0.385401
0.392948
0.400083
0.40684
0.413252
0.419344
0.425139
0.430662
0.435931
0.440967
0.445787
0.450408
0.454847
0.45912
0.463241
0.467223
0.471076
0.474814
0.478447
0.481983
0.485431
0.488802
0.492102
0.49534
0.498521
0.501652
0.504741
0.507793
0.510811
0.513801
0.516766
0.51971
0.522635
0.525543
0.528435
0.531312
0.534174
0.53702
0.539852
0.542667
0.545465
0.548245
0.551008
0.553753
0.55648
0.55919
0.561884
0.564565
0.567234
0.569896
0.572554
0.575213
0.577879
0.580559
0.58326
0.58599
0.588757
0.591574
0.594451
0.597404
0.600449
0.603607
0.606902
0.610368
0.614048
0.617999
0.622304
0.627077
0.632487
0.638787
0.646374
0.655884
0.668356
0.685422
0.709092
0.739341
0.768975
0.787944
0.796078
0.798824
0.799659
0.799903
0.799973
0.799992
0.799998
0.799999
0.8
0.8
0.8
0.8
0.8
0.8
0.8
0.8
0.8
0.8
0.8
0.8
0.8
0.8
0.8
0.8
0.8
0.8
0.8
0.8
0.8
0.8
0.8
0.8
0.8
0.8
0.8
0.8
0.8
0.8
0.8
0.8
0.8
0.8
0.8
0.8
0.8
0.8
0.8
0.8
0.8
0.8
0.8
0.8
0.8
0.8
0.8
0.214632
0.220432
0.229073
0.239827
0.251824
0.264379
0.277038
0.289523
0.301671
0.313388
0.324623
0.33535
0.345558
0.355251
0.36444
0.373143
0.381381
0.389176
0.396555
0.403546
0.41018
0.416483
0.422476
0.42818
0.433617
0.438804
0.44376
0.448502
0.453047
0.457413
0.461614
0.465664
0.469575
0.473361
0.477032
0.480597
0.484067
0.48745
0.490757
0.493994
0.497169
0.50029
0.503364
0.506397
0.509395
0.512364
0.515308
0.518232
0.521138
0.52403
0.52691
0.529778
0.532636
0.535483
0.538319
0.541143
0.543955
0.546753
0.549536
0.552303
0.555055
0.55779
0.56051
0.563214
0.565906
0.568587
0.571261
0.573932
0.576607
0.579289
0.581987
0.584709
0.587463
0.590259
0.593109
0.596025
0.599023
0.602122
0.605345
0.608718
0.61228
0.616079
0.620184
0.624689
0.629729
0.635506
0.642332
0.650696
0.661394
0.675718
0.695571
0.722558
0.753868
0.779348
0.792706
0.797733
0.799333
0.799809
0.799946
0.799985
0.799996
0.799999
0.8
0.8
0.8
0.8
0.8
0.8
0.8
0.8
0.8
0.8
0.8
0.8
0.8
0.8
0.8
0.8
0.8
0.8
0.8
0.8
0.8
0.8
0.8
0.8
0.8
0.8
0.8
0.8
0.8
0.8
0.8
0.8
0.8
0.8
0.8
0.8
0.8
0.8
0.8
0.8
0.8
0.8
0.8
0.8
0.8
0.8
0.8
0.8
0.228693
0.23482
0.243193
0.253137
0.264038
0.275429
0.286981
0.29847
0.309749
0.320721
0.331321
0.341509
0.35126
0.360566
0.369427
0.377851
0.385849
0.39344
0.400643
0.407485
0.413989
0.420174
0.42606
0.431664
0.437004
0.442097
0.446961
0.451613
0.45607
0.46035
0.464465
0.468431
0.47226
0.475964
0.479555
0.48304
0.486431
0.489736
0.492965
0.496126
0.499225
0.502272
0.505275
0.50824
0.511174
0.514083
0.516971
0.519844
0.522706
0.525558
0.528404
0.531243
0.534078
0.536907
0.539731
0.542548
0.545356
0.548154
0.550941
0.553715
0.556475
0.559219
0.561949
0.564665
0.567368
0.570061
0.572748
0.575432
0.57812
0.580818
0.583533
0.586275
0.589052
0.591875
0.594757
0.597712
0.600757
0.603912
0.607201
0.610657
0.614321
0.618251
0.622525
0.627255
0.632605
0.638821
0.646287
0.655622
0.667836
0.684527
0.707723
0.737657
0.767595
0.78724
0.79582
0.798744
0.799637
0.799897
0.799971
0.799992
0.799998
0.799999
0.8
0.8
0.8
0.8
0.8
0.8
0.8
0.8
0.8
0.8
0.8
0.8
0.8
0.8
0.8
0.8
0.8
0.8
0.8
0.8
0.8
0.8
0.8
0.8
0.8
0.8
0.8
0.8
0.8
0.8
0.8
0.8
0.8
0.8
0.8
0.8
0.8
0.8
0.8
0.8
0.8
0.8
0.8
0.8
0.8
0.8
0.8
0.8
0.244173
0.249932
0.257551
0.266489
0.276286
0.286583
0.297115
0.307688
0.31816
0.328431
0.338427
0.348096
0.357404
0.366331
0.374868
0.383015
0.390776
0.398162
0.405192
0.411884
0.418256
0.424321
0.430095
0.435591
0.440827
0.445817
0.45058
0.455131
0.459489
0.463669
0.467687
0.471556
0.475291
0.478901
0.482399
0.485791
0.48909
0.492304
0.495441
0.49851
0.501521
0.504481
0.5074
0.510284
0.513141
0.515978
0.518799
0.521611
0.524418
0.527223
0.530028
0.532834
0.535642
0.538452
0.541262
0.54407
0.546876
0.549676
0.552468
0.55525
0.55802
0.560777
0.56352
0.566249
0.568966
0.571672
0.574371
0.577069
0.57977
0.582482
0.585214
0.587975
0.590775
0.593626
0.596542
0.599537
0.602631
0.605845
0.609206
0.612751
0.616529
0.620606
0.625076
0.630071
0.635793
0.642549
0.650822
0.66141
0.675603
0.695315
0.722208
0.753564
0.7792
0.792664
0.797727
0.799334
0.79981
0.799947
0.799985
0.799996
0.799999
0.8
0.8
0.8
0.8
0.8
0.8
0.8
0.8
0.8
0.8
0.8
0.8
0.8
0.8
0.8
0.8
0.8
0.8
0.8
0.8
0.8
0.8
0.8
0.8
0.8
0.8
0.8
0.8
0.8
0.8
0.8
0.8
0.8
0.8
0.8
0.8
0.8
0.8
0.8
0.8
0.8
0.8
0.8
0.8
0.8
0.8
0.8
0.8
0.8
0.259514
0.264717
0.27152
0.279502
0.288303
0.297633
0.307264
0.317019
0.326765
0.336398
0.345837
0.355023
0.363916
0.372485
0.380714
0.388596
0.396129
0.403322
0.410187
0.416737
0.42298
0.428926
0.434587
0.439974
0.445101
0.449983
0.454636
0.459077
0.463323
0.467392
0.4713
0.475061
0.478689
0.482194
0.485586
0.488874
0.492068
0.495176
0.498207
0.501172
0.504079
0.506937
0.509756
0.512544
0.51531
0.518061
0.520803
0.523543
0.526285
0.529034
0.53179
0.534557
0.537334
0.540121
0.542916
0.545716
0.54852
0.551324
0.554124
0.556918
0.559702
0.562475
0.565235
0.567981
0.570714
0.573436
0.57615
0.578861
0.581577
0.584303
0.587052
0.589833
0.592657
0.595539
0.598491
0.60153
0.604677
0.607956
0.611398
0.615045
0.618954
0.623203
0.627905
0.633224
0.639409
0.64685
0.656177
0.668428
0.685245
0.70869
0.738872
0.768677
0.787844
0.796062
0.798827
0.799664
0.799905
0.799974
0.799993
0.799998
0.799999
0.8
0.8
0.8
0.8
0.8
0.8
0.8
0.8
0.8
0.8
0.8
0.8
0.8
0.8
0.8
0.8
0.8
0.8
0.8
0.8
0.8
0.8
0.8
0.8
0.8
0.8
0.8
0.8
0.8
0.8
0.8
0.8
0.8
0.8
0.8
0.8
0.8
0.8
0.8
0.8
0.8
0.8
0.8
0.8
0.8
0.8
0.8
0.8
0.8
0.274087
0.27875
0.284826
0.291986
0.29994
0.308446
0.317304
0.326352
0.335462
0.34453
0.353472
0.362224
0.370738
0.37898
0.386927
0.394565
0.401891
0.40891
0.415627
0.422046
0.42817
0.434004
0.439557
0.444836
0.449854
0.454623
0.459159
0.46348
0.467605
0.471551
0.475337
0.478979
0.482488
0.485876
0.489151
0.492323
0.495399
0.498388
0.501299
0.504142
0.506929
0.509668
0.51237
0.515045
0.517703
0.520352
0.523
0.525653
0.528319
0.531
0.533699
0.53642
0.539161
0.541923
0.544701
0.547495
0.550299
0.553109
0.555922
0.558733
0.561537
0.564331
0.567114
0.569883
0.572637
0.575378
0.57811
0.580837
0.583567
0.58631
0.589077
0.59188
0.594731
0.597646
0.600639
0.603729
0.606937
0.610292
0.613828
0.617595
0.621661
0.626119
0.631108
0.636833
0.643612
0.651957
0.662705
0.677221
0.697501
0.725091
0.756535
0.781152
0.793513
0.798021
0.799427
0.799839
0.799955
0.799988
0.799997
0.799999
0.8
0.8
0.8
0.8
0.8
0.8
0.8
0.8
0.8
0.8
0.8
0.8
0.8
0.8
0.8
0.8
0.8
0.8
0.8
0.8
0.8
0.8
0.8
0.8
0.8
0.8
0.8
0.8
0.8
0.8
0.8
0.8
0.8
0.8
0.8
0.8
0.8
0.8
0.8
0.8
0.8
0.8
0.8
0.8
0.8
0.8
0.8
0.8
0.8
0.8
0.287693
0.291894
0.29737
0.303856
0.311116
0.31894
0.327154
0.335607
0.344177
0.352761
0.361273
0.369646
0.377829
0.385782
0.393479
0.400906
0.408056
0.414928
0.421519
0.427826
0.433847
0.439583
0.445039
0.450219
0.455131
0.459788
0.464203
0.468395
0.472386
0.476198
0.479849
0.483358
0.486737
0.489997
0.493145
0.496189
0.499134
0.501989
0.504763
0.507467
0.510113
0.512712
0.515277
0.51782
0.520349
0.522877
0.525412
0.527962
0.530535
0.533135
0.535767
0.538434
0.541134
0.543866
0.546628
0.549414
0.552221
0.555043
0.557875
0.560709
0.563541
0.566367
0.569182
0.571982
0.574764
0.577531
0.580286
0.583032
0.58578
0.588541
0.591329
0.594156
0.597039
0.599993
0.603036
0.606186
0.609467
0.612914
0.616566
0.620481
0.62474
0.629461
0.634815
0.64107
0.648645
0.658227
0.670951
0.688595
0.713218
0.744141
0.772846
0.789922
0.796822
0.799069
0.799737
0.799927
0.79998
0.799995
0.799999
0.8
0.8
0.8
0.8
0.8
0.8
0.8
0.8
0.8
0.8
0.8
0.8
0.8
0.8
0.8
0.8
0.8
0.8
0.8
0.8
0.8
0.8
0.8
0.8
0.8
0.8
0.8
0.8
0.8
0.8
0.8
0.8
0.8
0.8
0.8
0.8
0.8
0.8
0.8
0.8
0.8
0.8
0.8
0.8
0.8
0.8
0.8
0.8
0.8
0.8
0.8
0.300306
0.304132
0.30913
0.315083
0.32179
0.32907
0.336764
0.344735
0.352863
0.361047
0.369202
0.377258
0.385162
0.392874
0.400365
0.407622
0.414635
0.421393
0.427886
0.434107
0.44005
0.445711
0.451091
0.456188
0.461006
0.465555
0.469847
0.473904
0.477749
0.48141
0.484911
0.488272
0.491509
0.49463
0.49764
0.500544
0.503345
0.50605
0.508668
0.511211
0.513692
0.516127
0.51853
0.520913
0.52329
0.525672
0.528071
0.530496
0.532956
0.535459
0.53801
0.540611
0.543263
0.545962
0.548706
0.551488
0.554302
0.557142
0.56
0.562869
0.565741
0.568611
0.57147
0.57432
0.57716
0.579978
0.582765
0.585527
0.588289
0.591065
0.593871
0.596724
0.599643
0.602645
0.605748
0.608974
0.61235
0.615913
0.619712
0.623816
0.628325
0.633388
0.639229
0.646204
0.654888
0.666234
0.681788
0.703672
0.732831
0.763735
0.785358
0.795184
0.798566
0.799592
0.799886
0.799969
0.799992
0.799998
0.799999
0.8
0.8
0.8
0.8
0.8
0.8
0.8
0.8
0.8
0.8
0.8
0.8
0.8
0.8
0.8
0.8
0.8
0.8
0.8
0.8
0.8
0.8
0.8
0.8
0.8
0.8
0.8
0.8
0.8
0.8
0.8
0.8
0.8
0.8
0.8
0.8
0.8
0.8
0.8
0.8
0.8
0.8
0.8
0.8
0.8
0.8
0.8
0.8
0.8
0.8
0.8
0.311956
0.31549
0.320121
0.325666
0.33195
0.338813
0.346109
0.353708
0.361494
0.369366
0.377239
0.385046
0.392732
0.400257
0.407598
0.414735
0.421653
0.428335
0.434768
0.44094
0.446841
0.452465
0.457801
0.462845
0.467594
0.47205
0.476223
0.480136
0.483819
0.487308
0.490636
0.493832
0.496911
0.499882
0.502746
0.505499
0.508142
0.510678
0.513117
0.515471
0.517758
0.519996
0.522204
0.524396
0.526587
0.528792
0.531024
0.533295
0.535616
0.537999
0.54045
0.542972
0.545565
0.548227
0.550951
0.55373
0.556558
0.559424
0.562321
0.565239
0.568168
0.5711
0.574037
0.576982
0.579909
0.582806
0.585663
0.588467
0.59125
0.594041
0.596862
0.599738
0.60269
0.605741
0.608912
0.61223
0.615725
0.619437
0.623428
0.627783
0.632628
0.638158
0.644678
0.652682
0.662988
0.676945
0.696568
0.723577
0.755001
0.780254
0.793182
0.797927
0.799404
0.799834
0.799954
0.799988
0.799997
0.799999
0.8
0.8
0.8
0.8
0.8
0.8
0.8
0.8
0.8
0.8
0.8
0.8
0.8
0.8
0.8
0.8
0.8
0.8
0.8
0.8
0.8
0.8
0.8
0.8
0.8
0.8
0.8
0.8
0.8
0.8
0.8
0.8
0.8
0.8
0.8
0.8
0.8
0.8
0.8
0.8
0.8
0.8
0.8
0.8
0.8
0.8
0.8
0.8
0.8
0.8
0.8
0.8
0.322694
0.326009
0.33037
0.335619
0.341601
0.348169
0.355184
0.362521
0.370064
0.377714
0.385388
0.393019
0.400555
0.407961
0.415211
0.422282
0.429153
0.435807
0.442228
0.448403
0.454317
0.459958
0.465309
0.470355
0.47508
0.479475
0.483544
0.487305
0.4908
0.494083
0.497205
0.500207
0.50311
0.50592
0.508628
0.511222
0.513694
0.51604
0.51827
0.520399
0.522449
0.524447
0.526414
0.528371
0.530333
0.532317
0.534339
0.536415
0.538561
0.540792
0.543117
0.545541
0.548063
0.550679
0.553382
0.556163
0.559011
0.561916
0.564866
0.567852
0.570862
0.573886
0.57696
0.580039
0.583103
0.58613
0.589094
0.591984
0.594808
0.597628
0.600476
0.603385
0.606386
0.609504
0.612766
0.616204
0.619852
0.623763
0.628011
0.632709
0.638024
0.644224
0.651744
0.661303
0.674103
0.692013
0.717044
0.747918
0.775439
0.791089
0.797224
0.799193
0.799773
0.799937
0.799983
0.799995
0.799999
0.8
0.8
0.8
0.8
0.8
0.8
0.8
0.8
0.8
0.8
0.8
0.8
0.8
0.8
0.8
0.8
0.8
0.8
0.8
0.8
0.8
0.8
0.8
0.8
0.8
0.8
0.8
0.8
0.8
0.8
0.8
0.8
0.8
0.8
0.8
0.8
0.8
0.8
0.8
0.8
0.8
0.8
0.8
0.8
0.8
0.8
0.8
0.8
0.8
0.8
0.8
0.8
0.8
0.332573
0.33573
0.339909
0.344967
0.350762
0.357152
0.364003
0.371188
0.378592
0.386116
0.393678
0.401214
0.408678
0.416035
0.423257
0.430319
0.437201
0.443887
0.450362
0.456613
0.462622
0.46837
0.473831
0.479064
0.484111
0.488771
0.492813
0.49641
0.499656
0.50264
0.505457
0.508176
0.510831
0.513426
0.515939
0.518334
0.520585
0.52268
0.524623
0.526437
0.528155
0.529816
0.531451
0.533085
0.534737
0.536423
0.538161
0.539973
0.541882
0.543909
0.546066
0.54836
0.55079
0.553349
0.556027
0.558812
0.56169
0.564648
0.567674
0.570756
0.573882
0.577093
0.580354
0.583652
0.58696
0.590236
0.593419
0.59645
0.599336
0.602197
0.605081
0.608037
0.611106
0.614322
0.617718
0.621328
0.625198
0.629395
0.634018
0.639221
0.645244
0.652477
0.661575
0.673635
0.690399
0.713917
0.743755
0.772056
0.789414
0.796616
0.799
0.799715
0.799921
0.799978
0.799994
0.799998
0.8
0.8
0.8
0.8
0.8
0.8
0.8
0.8
0.8
0.8
0.8
0.8
0.8
0.8
0.8
0.8
0.8
0.8
0.8
0.8
0.8
0.8
0.8
0.8
0.8
0.8
0.8
0.8
0.8
0.8
0.8
0.8
0.8
0.8
0.8
0.8
0.8
0.8
0.8
0.8
0.8
0.8
0.8
0.8
0.8
0.8
0.8
0.8
0.8
0.8
0.8
0.8
0.8
0.8
0.34164
0.344696
0.348773
0.35374
0.35946
0.365793
0.3726
0.379751
0.387127
0.394628
0.402174
0.409705
0.417178
0.424557
0.431816
0.438934
0.445897
0.452693
0.459313
0.465746
0.471976
0.477977
0.48411
0.490366
0.496482
0.502234
0.507219
0.510575
0.513345
0.515706
0.51788
0.520013
0.522184
0.524396
0.526591
0.52868
0.530581
0.532254
0.5337
0.534953
0.536072
0.537131
0.538187
0.539274
0.54041
0.541609
0.54289
0.544284
0.545821
0.547532
0.549434
0.551535
0.553829
0.556304
0.558945
0.561732
0.564649
0.567678
0.570805
0.57402
0.577309
0.580759
0.584329
0.588024
0.591834
0.595694
0.599425
0.602796
0.605796
0.608711
0.611628
0.614629
0.617781
0.621134
0.624725
0.628594
0.6328
0.63744
0.64266
0.648689
0.655892
0.664875
0.676667
0.692896
0.715463
0.743999
0.771433
0.788828
0.796329
0.798891
0.799679
0.799909
0.799975
0.799993
0.799998
0.8
0.8
0.8
0.8
0.8
0.8
0.8
0.8
0.8
0.8
0.8
0.8
0.8
0.8
0.8
0.8
0.8
0.8
0.8
0.8
0.8
0.8
0.8
0.8
0.8
0.8
0.8
0.8
0.8
0.8
0.8
0.8
0.8
0.8
0.8
0.8
0.8
0.8
0.8
0.8
0.8
0.8
0.8
0.8
0.8
0.8
0.8
0.8
0.8
0.8
0.8
0.8
0.8
0.8
0.8
0.349939
0.352945
0.356998
0.361976
0.367738
0.374141
0.381037
0.388284
0.395755
0.403347
0.410981
0.418601
0.426162
0.433635
0.441003
0.448254
0.455385
0.462397
0.469292
0.476068
0.482718
0.489852
0.497528
0.505648
0.514254
0.522737
0.530473
0.534448
0.536408
0.537467
0.538272
0.539188
0.540419
0.541991
0.543765
0.545489
0.546905
0.547904
0.548472
0.548664
0.548606
0.548478
0.548411
0.548462
0.548639
0.548946
0.549397
0.550033
0.550905
0.552059
0.553519
0.555287
0.557349
0.559679
0.562248
0.565024
0.567982
0.571099
0.574361
0.577756
0.581342
0.585155
0.589236
0.593674
0.598574
0.603889
0.609102
0.613286
0.616497
0.619429
0.622292
0.625258
0.628467
0.632008
0.635928
0.640263
0.645101
0.650597
0.656991
0.664649
0.674141
0.686384
0.702755
0.724619
0.750828
0.774865
0.789918
0.796566
0.798927
0.799679
0.799907
0.799974
0.799993
0.799998
0.799999
0.8
0.8
0.8
0.8
0.8
0.8
0.8
0.8
0.8
0.8
0.8
0.8
0.8
0.8
0.8
0.8
0.8
0.8
0.8
0.8
0.8
0.8
0.8
0.8
0.8
0.8
0.8
0.8
0.8
0.8
0.8
0.8
0.8
0.8
0.8
0.8
0.8
0.8
0.8
0.8
0.8
0.8
0.8
0.8
0.8
0.8
0.8
0.8
0.8
0.8
0.8
0.8
0.8
0.8
0.8
0.357539
0.360563
0.364684
0.369771
0.375677
0.382241
0.3893
0.396787
0.404615
0.412427
0.420258
0.428054
0.435782
0.443427
0.450985
0.458464
0.46588
0.473254
0.480614
0.487987
0.495946
0.505267
0.516004
0.528068
0.54174
0.554745
0.56838
0.573264
0.573914
0.572178
0.570194
0.568758
0.568377
0.569184
0.570883
0.573918
0.575005
0.575134
0.574272
0.57249
0.570054
0.567518
0.565241
0.56332
0.561715
0.560366
0.559265
0.558468
0.558079
0.558186
0.558826
0.559988
0.561629
0.563692
0.566117
0.568847
0.571839
0.575061
0.578495
0.582137
0.586105
0.590474
0.59542
0.601284
0.608555
0.617342
0.626282
0.632059
0.635591
0.638256
0.640693
0.643318
0.646478
0.650392
0.655133
0.660699
0.667234
0.675017
0.684416
0.695847
0.709719
0.726337
0.745552
0.765622
0.782334
0.792584
0.797315
0.799112
0.799722
0.799916
0.799975
0.799993
0.799998
0.799999
0.8
0.8
0.8
0.8
0.8
0.8
0.8
0.8
0.8
0.8
0.8
0.8
0.8
0.8
0.8
0.8
0.8
0.8
0.8
0.8
0.8
0.8
0.8
0.8
0.8
0.8
0.8
0.8
0.8
0.8
0.8
0.8
0.8
0.8
0.8
0.8
0.8
0.8
0.8
0.8
0.8
0.8
0.8
0.8
0.8
0.8
0.8
0.8
0.8
0.8
0.8
0.8
0.8
0.8
0.8
0.8
0.364488
0.367612
0.371909
0.377242
0.383446
0.390335
0.397723
0.405509
0.413577
0.421607
0.43019
0.438283
0.446259
0.454158
0.462004
0.469832
0.477693
0.485647
0.493774
0.502184
0.513078
0.52678
0.543652
0.561206
0.581494
0.59623
0.614459
0.618678
0.61849
0.612621
0.607134
0.602943
0.600995
0.601859
0.607764
0.616754
0.620292
0.620167
0.617722
0.612832
0.605822
0.598652
0.592413
0.587199
0.582698
0.578614
0.574832
0.571453
0.568736
0.566905
0.566046
0.566119
0.567018
0.56861
0.570772
0.573398
0.57641
0.579754
0.583411
0.587392
0.591885
0.597083
0.603436
0.611855
0.623741
0.639412
0.655828
0.66337
0.667229
0.668638
0.669777
0.671474
0.67464
0.679965
0.687644
0.697191
0.708628
0.721836
0.736129
0.750271
0.763092
0.774092
0.783366
0.790827
0.795715
0.798271
0.799374
0.79979
0.799933
0.79998
0.799994
0.799998
0.799999
0.8
0.8
0.8
0.8
0.8
0.8
0.8
0.8
0.8
0.8
0.8
0.8
0.8
0.8
0.8
0.8
0.8
0.8
0.8
0.8
0.8
0.8
0.8
0.8
0.8
0.8
0.8
0.8
0.8
0.8
0.8
0.8
0.8
0.8
0.8
0.8
0.8
0.8
0.8
0.8
0.8
0.8
0.8
0.8
0.8
0.8
0.8
0.8
0.8
0.8
0.8
0.8
0.8
0.8
0.8
0.8
0.8
0.370828
0.374138
0.378737
0.384481
0.391177
0.398596
0.406512
0.414772
0.423217
0.431628
0.440422
0.449032
0.457885
0.46615
0.474409
0.482758
0.491304
0.500187
0.509608
0.521516
0.537348
0.559326
0.585049
0.604645
0.628222
0.634517
0.640819
0.693589
0.70827
0.63291
0.628756
0.625267
0.623919
0.626552
0.637468
0.652771
0.658208
0.660445
0.65997
0.655496
0.645098
0.6337
0.624304
0.616767
0.610094
0.603502
0.596667
0.589784
0.583564
0.578707
0.575501
0.573895
0.573668
0.574561
0.576339
0.578814
0.581849
0.585361
0.589323
0.593774
0.598985
0.605366
0.613842
0.626384
0.645954
0.67169
0.696557
0.704217
0.708879
0.707298
0.706697
0.707335
0.711599
0.721743
0.73948
0.754498
0.767698
0.778057
0.785446
0.790329
0.793413
0.795367
0.796795
0.798155
0.799101
0.799625
0.799861
0.799953
0.799985
0.799995
0.799999
0.8
0.8
0.8
0.8
0.8
0.8
0.8
0.8
0.8
0.8
0.8
0.8
0.8
0.8
0.8
0.8
0.8
0.8
0.8
0.8
0.8
0.8
0.8
0.8
0.8
0.8
0.8
0.8
0.8
0.8
0.8
0.8
0.8
0.8
0.8
0.8
0.8
0.8
0.8
0.8
0.8
0.8
0.8
0.8
0.8
0.8
0.8
0.8
0.8
0.8
0.8
0.8
0.8
0.8
0.8
0.8
0.8
0.8
0.8
0.376602
0.380196
0.385252
0.39162
0.399069
0.407292
0.415983
0.42491
0.433892
0.442816
0.451917
0.460854
0.470065
0.479865
0.488732
0.49787
0.507507
0.517956
0.52971
0.547935
0.571969
0.60626
0.638857
0.649135
0.658869
0.775477
0.799479
0.799467
0.798354
0.791308
0.701891
0.640756
0.639697
0.644807
0.663646
0.673051
0.754682
0.796768
0.785498
0.717591
0.657192
0.650205
0.644476
0.639857
0.63511
0.629135
0.621219
0.611402
0.601168
0.592564
0.586442
0.582784
0.58122
0.581317
0.582698
0.585065
0.588209
0.592003
0.596415
0.601545
0.607735
0.61573
0.627167
0.645667
0.676167
0.70953
0.726045
0.780516
0.788748
0.733108
0.736126
0.738093
0.746493
0.764391
0.784716
0.792143
0.795764
0.797641
0.798649
0.799167
0.799416
0.799495
0.79948
0.799657
0.799814
0.799919
0.79997
0.79999
0.799997
0.799999
0.8
0.8
0.8
0.8
0.8
0.8
0.8
0.8
0.8
0.8
0.8
0.8
0.8
0.8
0.8
0.8
0.8
0.8
0.8
0.8
0.8
0.8
0.8
0.8
0.8
0.8
0.8
0.8
0.8
0.8
0.8
0.8
0.8
0.8
0.8
0.8
0.8
0.8
0.8
0.8
0.8
0.8
0.8
0.8
0.8
0.8
0.8
0.8
0.8
0.8
0.8
0.8
0.8
0.8
0.8
0.8
0.8
0.8
0.8
0.8
0.381857
0.385847
0.391556
0.398848
0.40743
0.416852
0.426633
0.436457
0.446155
0.455698
0.465225
0.474624
0.484251
0.494518
0.505814
0.516261
0.527806
0.541232
0.559824
0.591184
0.622325
0.666728
0.681054
0.775748
0.799526
0.79992
0.799998
0.799998
0.799995
0.799967
0.799238
0.736781
0.66049
0.667618
0.6921
0.793796
0.79997
0.799995
0.799952
0.799211
0.727165
0.661966
0.659641
0.658854
0.657544
0.654248
0.64732
0.635174
0.619564
0.606469
0.597282
0.591647
0.588885
0.588354
0.589528
0.592007
0.595502
0.599843
0.605
0.611193
0.618788
0.628966
0.644226
0.670632
0.715277
0.742511
0.796754
0.799989
0.799985
0.799603
0.79411
0.764796
0.774963
0.791379
0.798082
0.799943
0.8
0.79999
0.8
0.8
0.799999
0.799986
0.799871
0.79993
0.799957
0.799982
0.799993
0.799998
0.799999
0.8
0.8
0.8
0.8
0.8
0.8
0.8
0.8
0.8
0.8
0.8
0.8
0.8
0.8
0.8
0.8
0.8
0.8
0.8
0.8
0.8
0.8
0.8
0.8
0.8
0.8
0.8
0.8
0.8
0.8
0.8
0.8
0.8
0.8
0.8
0.8
0.8
0.8
0.8
0.8
0.8
0.8
0.8
0.8
0.8
0.8
0.8
0.8
0.8
0.8
0.8
0.8
0.8
0.8
0.8
0.8
0.8
0.8
0.8
0.8
0.8
0.38664
0.391148
0.397767
0.40643
0.416758
0.427999
0.439314
0.45032
0.460925
0.471195
0.481289
0.491309
0.501613
0.512636
0.525254
0.540091
0.555643
0.57616
0.615467
0.668681
0.692233
0.728567
0.798338
0.799901
0.799997
0.8
0.8
0.8
0.8
0.8
0.799997
0.797893
0.767808
0.699654
0.779704
0.799619
0.799999
0.8
0.8
0.799997
0.798894
0.702211
0.75494
0.775101
0.769393
0.724283
0.683585
0.640059
0.626427
0.614401
0.605026
0.598844
0.595682
0.595075
0.596527
0.599612
0.604013
0.609551
0.616171
0.624323
0.634473
0.647761
0.667415
0.702553
0.757114
0.799061
0.799997
0.8
0.8
0.799999
0.799987
0.797012
0.792544
0.798708
0.799846
0.799995
0.8
0.8
0.8
0.8
0.8
0.8
0.8
0.799999
0.799989
0.799996
0.799999
0.8
0.8
0.8
0.8
0.8
0.8
0.8
0.8
0.8
0.8
0.8
0.8
0.8
0.8
0.8
0.8
0.8
0.8
0.8
0.8
0.8
0.8
0.8
0.8
0.8
0.8
0.8
0.8
0.8
0.8
0.8
0.8
0.8
0.8
0.8
0.8
0.8
0.8
0.8
0.8
0.8
0.8
0.8
0.8
0.8
0.8
0.8
0.8
0.8
0.8
0.8
0.8
0.8
0.8
0.8
0.8
0.8
0.8
0.8
0.8
0.8
0.8
0.8
0.390992
0.396128
0.403983
0.414732
0.427901
0.442106
0.455665
0.468261
0.479991
0.491118
0.501968
0.51287
0.524306
0.536892
0.551715
0.571913
0.600216
0.642218
0.713765
0.762389
0.797816
0.799465
0.79999
0.8
0.8
0.8
0.8
0.8
0.8
0.8
0.8
0.79999
0.796805
0.738618
0.794001
0.799936
0.8
0.8
0.8
0.8
0.790461
0.746373
0.794986
0.799784
0.799571
0.782202
0.730588
0.644009
0.63049
0.619227
0.610239
0.604248
0.601382
0.601386
0.603909
0.608675
0.615528
0.624465
0.634672
0.647207
0.663385
0.685251
0.716149
0.75842
0.789992
0.799881
0.8
0.8
0.8
0.8
0.8
0.799757
0.79893
0.799958
0.799994
0.8
0.8
0.8
0.8
0.8
0.8
0.8
0.8
0.8
0.799999
0.8
0.8
0.8
0.8
0.8
0.8
0.8
0.8
0.8
0.8
0.8
0.8
0.8
0.8
0.8
0.8
0.8
0.8
0.8
0.8
0.8
0.8
0.8
0.8
0.8
0.8
0.8
0.8
0.8
0.8
0.8
0.8
0.8
0.8
0.8
0.8
0.8
0.8
0.8
0.8
0.8
0.8
0.8
0.8
0.8
0.8
0.8
0.8
0.8
0.8
0.8
0.8
0.8
0.8
0.8
0.8
0.8
0.8
0.8
0.8
0.8
0.8
0.8
0.8
0.8
0.394937
0.400732
0.410163
0.424135
0.442427
0.462361
0.479676
0.494654
0.507692
0.519721
0.531559
0.543841
0.557363
0.573234
0.593364
0.622693
0.677671
0.752726
0.793753
0.799708
0.799988
0.799996
0.8
0.8
0.8
0.8
0.8
0.8
0.8
0.8
0.8
0.799999
0.799833
0.777039
0.799425
0.799999
0.8
0.8
0.8
0.8
0.797459
0.784547
0.799819
0.799998
0.799998
0.796691
0.762647
0.646171
0.632871
0.622017
0.613519
0.608176
0.606291
0.607942
0.613518
0.62414
0.640537
0.685103
0.703008
0.721849
0.741466
0.75848
0.770595
0.787102
0.796567
0.79994
0.8
0.8
0.8
0.8
0.8
0.799977
0.799861
0.8
0.8
0.8
0.8
0.8
0.8
0.8
0.8
0.8
0.8
0.8
0.8
0.8
0.8
0.8
0.8
0.8
0.8
0.8
0.8
0.8
0.8
0.8
0.8
0.8
0.8
0.8
0.8
0.8
0.8
0.8
0.8
0.8
0.8
0.8
0.8
0.8
0.8
0.8
0.8
0.8
0.8
0.8
0.8
0.8
0.8
0.8
0.8
0.8
0.8
0.8
0.8
0.8
0.8
0.8
0.8
0.8
0.8
0.8
0.8
0.8
0.8
0.8
0.8
0.8
0.8
0.8
0.8
0.8
0.8
0.8
0.8
0.8
0.8
0.8
0.8
0.8
0.398477
0.404755
0.415829
0.435206
0.467673
0.5119
0.548703
0.580254
0.561489
0.567867
0.580021
0.593751
0.610128
0.631379
0.659829
0.703861
0.767414
0.797647
0.799959
0.799998
0.8
0.8
0.8
0.8
0.8
0.8
0.8
0.8
0.8
0.8
0.8
0.8
0.799999
0.793316
0.799955
0.8
0.8
0.8
0.8
0.8
0.799536
0.79808
0.799998
0.8
0.8
0.799623
0.73717
0.646848
0.633811
0.623525
0.615954
0.612027
0.612516
0.618499
0.632033
0.683844
0.73347
0.7781
0.798683
0.799119
0.798565
0.798226
0.792613
0.796737
0.798595
0.799945
0.8
0.8
0.8
0.8
0.8
0.799998
0.799985
0.8
0.8
0.8
0.8
0.8
0.8
0.8
0.8
0.8
0.8
0.8
0.8
0.8
0.8
0.8
0.8
0.8
0.8
0.8
0.8
0.8
0.8
0.8
0.8
0.8
0.8
0.8
0.8
0.8
0.8
0.8
0.8
0.8
0.8
0.8
0.8
0.8
0.8
0.8
0.8
0.8
0.8
0.8
0.8
0.8
0.8
0.8
0.8
0.8
0.8
0.8
0.8
0.8
0.8
0.8
0.8
0.8
0.8
0.8
0.8
0.8
0.8
0.8
0.8
0.8
0.8
0.8
0.8
0.8
0.8
0.8
0.8
0.8
0.8
0.8
0.8
0.8
0.401638
0.407902
0.419072
0.438815
0.471336
0.514442
0.642239
0.682719
0.675746
0.669675
0.676885
0.68976
0.690572
0.715426
0.740956
0.766303
0.799201
0.799981
0.8
0.8
0.8
0.8
0.8
0.8
0.8
0.8
0.8
0.8
0.8
0.8
0.8
0.8
0.8
0.798359
0.799987
0.8
0.8
0.8
0.8
0.8
0.799923
0.799837
0.8
0.8
0.8
0.799964
0.663438
0.645387
0.633443
0.624498
0.61918
0.619209
0.626866
0.644117
0.667023
0.792997
0.798741
0.799833
0.799988
0.799992
0.799988
0.799989
0.799973
0.79983
0.799458
0.799943
0.8
0.8
0.8
0.8
0.8
0.8
0.799999
0.8
0.8
0.8
0.8
0.8
0.8
0.8
0.8
0.8
0.8
0.8
0.8
0.8
0.8
0.8
0.8
0.8
0.8
0.8
0.8
0.8
0.8
0.8
0.8
0.8
0.8
0.8
0.8
0.8
0.8
0.8
0.8
0.8
0.8
0.8
0.8
0.8
0.8
0.8
0.8
0.8
0.8
0.8
0.8
0.8
0.8
0.8
0.8
0.8
0.8
0.8
0.8
0.8
0.8
0.8
0.8
0.8
0.8
0.8
0.8
0.8
0.8
0.8
0.8
0.8
0.8
0.8
0.8
0.8
0.8
0.8
0.8
0.8
0.8
0.8
0.8
0.8
0.40462
0.410633
0.421232
0.439743
0.46962
0.50801
0.519585
0.790778
0.795195
0.799934
0.79839
0.781578
0.744281
0.792747
0.797993
0.79968
0.79999
0.8
0.8
0.8
0.8
0.8
0.8
0.8
0.8
0.8
0.8
0.8
0.8
0.8
0.8
0.8
0.8
0.799643
0.799998
0.8
0.8
0.8
0.8
0.8
0.799988
0.799988
0.8
0.8
0.8
0.792862
0.659846
0.643676
0.633094
0.626999
0.626168
0.632591
0.646663
0.662576
0.787685
0.799874
0.799984
0.799999
0.8
0.8
0.8
0.8
0.8
0.799992
0.799831
0.799981
0.8
0.8
0.8
0.8
0.8
0.8
0.8
0.8
0.8
0.8
0.8
0.8
0.8
0.8
0.8
0.8
0.8
0.8
0.8
0.8
0.8
0.8
0.8
0.8
0.8
0.8
0.8
0.8
0.8
0.8
0.8
0.8
0.8
0.8
0.8
0.8
0.8
0.8
0.8
0.8
0.8
0.8
0.8
0.8
0.8
0.8
0.8
0.8
0.8
0.8
0.8
0.8
0.8
0.8
0.8
0.8
0.8
0.8
0.8
0.8
0.8
0.8
0.8
0.8
0.8
0.8
0.8
0.8
0.8
0.8
0.8
0.8
0.8
0.8
0.8
0.8
0.8
0.8
0.8
0.8
0.8
0.8
0.8
0.8
0.407555
0.413236
0.423061
0.439861
0.46625
0.499041
0.512601
0.516811
0.799895
0.799999
0.799974
0.799656
0.798481
0.79987
0.799967
0.799997
0.8
0.8
0.8
0.8
0.8
0.8
0.8
0.8
0.8
0.8
0.8
0.8
0.8
0.8
0.8
0.8
0.8
0.799928
0.8
0.8
0.8
0.8
0.8
0.8
0.799998
0.799999
0.8
0.8
0.799994
0.787096
0.65843
0.642627
0.634664
0.63325
0.63736
0.647585
0.658934
0.776743
0.799599
0.799995
0.8
0.8
0.8
0.8
0.8
0.8
0.8
0.8
0.799953
0.799996
0.8
0.8
0.8
0.8
0.8
0.8
0.8
0.8
0.8
0.8
0.8
0.8
0.8
0.8
0.8
0.8
0.8
0.8
0.8
0.8
0.8
0.8
0.8
0.8
0.8
0.8
0.8
0.8
0.8
0.8
0.8
0.8
0.8
0.8
0.8
0.8
0.8
0.8
0.8
0.8
0.8
0.8
0.8
0.8
0.8
0.8
0.8
0.8
0.8
0.8
0.8
0.8
0.8
0.8
0.8
0.8
0.8
0.8
0.8
0.8
0.8
0.8
0.8
0.8
0.8
0.8
0.8
0.8
0.8
0.8
0.8
0.8
0.8
0.8
0.8
0.8
0.8
0.8
0.8
0.8
0.8
0.8
0.8
0.8
0.410501
0.415822
0.424814
0.439813
0.462736
0.490665
0.505896
0.513263
0.51707
0.798001
0.8
0.799995
0.799976
0.799998
0.8
0.8
0.8
0.8
0.8
0.8
0.8
0.8
0.8
0.8
0.8
0.8
0.8
0.8
0.8
0.8
0.8
0.8
0.8
0.799986
0.8
0.8
0.8
0.8
0.8
0.8
0.8
0.8
0.8
0.8
0.799948
0.780574
0.657989
0.643466
0.64039
0.643886
0.649735
0.659316
0.749131
0.799191
0.799988
0.8
0.8
0.8
0.8
0.8
0.8
0.8
0.8
0.8
0.799988
0.799999
0.8
0.8
0.8
0.8
0.8
0.8
0.8
0.8
0.8
0.8
0.8
0.8
0.8
0.8
0.8
0.8
0.8
0.8
0.8
0.8
0.8
0.8
0.8
0.8
0.8
0.8
0.8
0.8
0.8
0.8
0.8
0.8
0.8
0.8
0.8
0.8
0.8
0.8
0.8
0.8
0.8
0.8
0.8
0.8
0.8
0.8
0.8
0.8
0.8
0.8
0.8
0.8
0.8
0.8
0.8
0.8
0.8
0.8