/*--------------------------------*- C++ -*----------------------------------*\
| =========                 |                                                 |
| \\      /  F ield         | OpenFOAM: The Open Source CFD Toolbox           |
|  \\    /   O peration     | Version:  2.1.0                                 |
|   \\  /    A nd           | Web:      www.OpenFOAM.org                      |
|    \\/     M anipulation  |                                                 |
\*---------------------------------------------------------------------------*/
FoamFile
{
    version     2.0;
    format      ascii;
    class       volScalarField;
    location    "20075";
    object      sw;
}
// * * * * * * * * * * * * * * * * * * * * * * * * * * * * * * * * * * * * * //

dimensions      [0 0 0 0 0 0 0];

internalField   nonuniform List<scalar> 
15000
(
0.8
0.79999
0.799381
0.795161
0.784892
0.770346
0.75429
0.738304
0.723021
0.708635
0.695174
0.682601
0.670858
0.659885
0.649625
0.640023
0.631028
0.622589
0.614661
0.607201
0.600169
0.593523
0.587225
0.581243
0.575551
0.570125
0.564941
0.559979
0.55522
0.550647
0.546245
0.542
0.537897
0.533922
0.530066
0.526317
0.522665
0.519102
0.515618
0.512207
0.508862
0.505574
0.50234
0.499152
0.496008
0.4929
0.489827
0.486785
0.483772
0.480787
0.477825
0.474889
0.471975
0.469085
0.466217
0.463373
0.460553
0.457756
0.454983
0.452235
0.44951
0.446807
0.444126
0.441465
0.438821
0.436193
0.433576
0.430968
0.428364
0.425759
0.423148
0.420525
0.417884
0.415216
0.412513
0.409766
0.406963
0.404093
0.401138
0.398082
0.3949
0.391565
0.388036
0.384262
0.38017
0.375657
0.37057
0.364683
0.357638
0.348861
0.337402
0.321708
0.299604
0.26995
0.238067
0.21542
0.205069
0.201513
0.200436
0.200124
0.200035
0.20001
0.200003
0.200001
0.2
0.2
0.2
0.2
0.2
0.2
0.2
0.2
0.2
0.2
0.2
0.2
0.2
0.2
0.2
0.2
0.2
0.2
0.2
0.2
0.2
0.2
0.2
0.2
0.2
0.2
0.2
0.2
0.2
0.2
0.2
0.2
0.2
0.2
0.2
0.2
0.2
0.2
0.2
0.2
0.2
0.2
0.2
0.2
0.2
0.2
0.799989
0.799773
0.797783
0.791015
0.779081
0.764261
0.748624
0.733239
0.718537
0.704657
0.69162
0.679395
0.66794
0.657206
0.647145
0.637709
0.628851
0.620527
0.612697
0.605322
0.59836
0.591773
0.585525
0.579588
0.573936
0.568545
0.563393
0.55846
0.553729
0.549185
0.544811
0.540592
0.536513
0.532564
0.528732
0.525007
0.52138
0.51784
0.514381
0.510994
0.507671
0.504407
0.501195
0.49803
0.494905
0.491818
0.488764
0.48574
0.482743
0.479772
0.476824
0.473898
0.470993
0.468109
0.465246
0.462405
0.459585
0.456787
0.454011
0.451257
0.448525
0.445814
0.443122
0.440449
0.437791
0.435148
0.432514
0.429887
0.427262
0.424634
0.421997
0.419345
0.41667
0.413965
0.41122
0.408426
0.40557
0.402638
0.399612
0.396473
0.393194
0.389741
0.386072
0.382124
0.377813
0.37302
0.367564
0.361177
0.35343
0.343634
0.330659
0.312738
0.287836
0.256633
0.227618
0.210282
0.203255
0.200961
0.200276
0.200079
0.200022
0.200006
0.200002
0.2
0.2
0.2
0.2
0.2
0.2
0.2
0.2
0.2
0.2
0.2
0.2
0.2
0.2
0.2
0.2
0.2
0.2
0.2
0.2
0.2
0.2
0.2
0.2
0.2
0.2
0.2
0.2
0.2
0.2
0.2
0.2
0.2
0.2
0.2
0.2
0.2
0.2
0.2
0.2
0.2
0.2
0.2
0.2
0.2
0.2
0.2
0.799396
0.797813
0.792899
0.783419
0.770507
0.756002
0.741167
0.726647
0.712724
0.699504
0.687012
0.675237
0.664152
0.653725
0.64392
0.634697
0.626019
0.617848
0.610148
0.602882
0.596014
0.589506
0.583328
0.577454
0.571859
0.566521
0.561419
0.556534
0.551851
0.547353
0.543022
0.538844
0.534806
0.530897
0.527106
0.52342
0.519831
0.51633
0.512909
0.509559
0.506272
0.503043
0.499866
0.496733
0.49364
0.490582
0.487555
0.484557
0.481583
0.478632
0.475701
0.47279
0.469897
0.467023
0.464167
0.461331
0.458512
0.455714
0.452936
0.450178
0.447439
0.44472
0.442018
0.439334
0.436665
0.434008
0.43136
0.428716
0.426073
0.423425
0.420766
0.418088
0.415385
0.412647
0.409865
0.407028
0.404122
0.401131
0.398038
0.39482
0.391447
0.387882
0.384073
0.379951
0.375417
0.370329
0.364477
0.357534
0.348984
0.337986
0.323178
0.302597
0.274793
0.243334
0.218814
0.2065
0.201996
0.200584
0.200167
0.200047
0.200013
0.200004
0.200001
0.2
0.2
0.2
0.2
0.2
0.2
0.2
0.2
0.2
0.2
0.2
0.2
0.2
0.2
0.2
0.2
0.2
0.2
0.2
0.2
0.2
0.2
0.2
0.2
0.2
0.2
0.2
0.2
0.2
0.2
0.2
0.2
0.2
0.2
0.2
0.2
0.2
0.2
0.2
0.2
0.2
0.2
0.2
0.2
0.2
0.2
0.2
0.795305
0.791194
0.783563
0.77273
0.759916
0.746251
0.732461
0.718942
0.705895
0.693416
0.681539
0.670274
0.659614
0.649541
0.640032
0.631059
0.622591
0.614599
0.607052
0.599917
0.59316
0.586748
0.580656
0.574861
0.569338
0.564069
0.559033
0.554213
0.549592
0.545153
0.54088
0.536759
0.532777
0.528924
0.525186
0.521553
0.518017
0.514569
0.511198
0.507898
0.50466
0.501479
0.498348
0.495259
0.492207
0.489189
0.486199
0.483234
0.48029
0.477365
0.474457
0.471565
0.468688
0.465826
0.46298
0.460148
0.457333
0.454535
0.451755
0.448992
0.446247
0.44352
0.44081
0.438116
0.435435
0.432766
0.430104
0.427446
0.424787
0.422121
0.419441
0.41674
0.41401
0.411243
0.408426
0.405549
0.402596
0.399551
0.396393
0.393098
0.389632
0.385952
0.382001
0.377696
0.372923
0.367513
0.361213
0.353626
0.344116
0.331644
0.314578
0.290908
0.260659
0.231025
0.212056
0.203922
0.201176
0.200341
0.200097
0.200027
0.200008
0.200002
0.200001
0.2
0.2
0.2
0.2
0.2
0.2
0.2
0.2
0.2
0.2
0.2
0.2
0.2
0.2
0.2
0.2
0.2
0.2
0.2
0.2
0.2
0.2
0.2
0.2
0.2
0.2
0.2
0.2
0.2
0.2
0.2
0.2
0.2
0.2
0.2
0.2
0.2
0.2
0.2
0.2
0.2
0.2
0.2
0.2
0.2
0.2
0.2
0.785368
0.779568
0.770927
0.760173
0.748176
0.735621
0.722962
0.710477
0.698329
0.686612
0.675377
0.66465
0.654442
0.644749
0.63556
0.626857
0.618619
0.610824
0.603445
0.596454
0.58982
0.583517
0.577524
0.57182
0.566383
0.561196
0.55624
0.551498
0.546953
0.542587
0.538386
0.534336
0.530425
0.526639
0.522968
0.519403
0.515933
0.51255
0.509243
0.506006
0.502831
0.49971
0.496636
0.493603
0.490605
0.487636
0.484692
0.481768
0.478862
0.47597
0.47309
0.470222
0.467364
0.464517
0.461681
0.458857
0.456045
0.453247
0.450464
0.447697
0.444945
0.44221
0.43949
0.436786
0.434094
0.431413
0.428739
0.426068
0.423393
0.420711
0.418013
0.415291
0.412537
0.409741
0.406891
0.403975
0.400977
0.397878
0.394655
0.391282
0.38772
0.383921
0.379816
0.375311
0.370271
0.364494
0.357668
0.349304
0.338606
0.324282
0.304429
0.277442
0.246132
0.220652
0.207294
0.202267
0.200667
0.200191
0.200054
0.200015
0.200004
0.200001
0.2
0.2
0.2
0.2
0.2
0.2
0.2
0.2
0.2
0.2
0.2
0.2
0.2
0.2
0.2
0.2
0.2
0.2
0.2
0.2
0.2
0.2
0.2
0.2
0.2
0.2
0.2
0.2
0.2
0.2
0.2
0.2
0.2
0.2
0.2
0.2
0.2
0.2
0.2
0.2
0.2
0.2
0.2
0.2
0.2
0.2
0.2
0.2
0.771307
0.76518
0.756807
0.746863
0.735962
0.724571
0.713019
0.70153
0.690251
0.679279
0.668679
0.658491
0.64874
0.639434
0.630573
0.622149
0.614151
0.60656
0.599357
0.592515
0.586011
0.579826
0.57394
0.568336
0.562996
0.557903
0.553039
0.548387
0.54393
0.53965
0.535535
0.531569
0.52774
0.524036
0.520445
0.51696
0.513569
0.510264
0.507035
0.503874
0.500775
0.497728
0.494725
0.49176
0.488826
0.485917
0.483029
0.480156
0.477294
0.474442
0.471596
0.468757
0.465922
0.463093
0.460269
0.457452
0.454644
0.451846
0.449059
0.446285
0.443525
0.440781
0.438051
0.435335
0.432632
0.429939
0.427252
0.424568
0.42188
0.419182
0.416467
0.413725
0.410948
0.408125
0.405243
0.402288
0.399243
0.396088
0.392799
0.389343
0.385679
0.381749
0.377475
0.372745
0.367395
0.361179
0.353713
0.344378
0.332164
0.315473
0.292277
0.262343
0.232405
0.21276
0.20418
0.201256
0.200363
0.200103
0.200029
0.200008
0.200002
0.200001
0.2
0.2
0.2
0.2
0.2
0.2
0.2
0.2
0.2
0.2
0.2
0.2
0.2
0.2
0.2
0.2
0.2
0.2
0.2
0.2
0.2
0.2
0.2
0.2
0.2
0.2
0.2
0.2
0.2
0.2
0.2
0.2
0.2
0.2
0.2
0.2
0.2
0.2
0.2
0.2
0.2
0.2
0.2
0.2
0.2
0.2
0.2
0.2
0.755827
0.750068
0.742449
0.733511
0.723714
0.713417
0.702885
0.692312
0.68184
0.671569
0.661573
0.651904
0.642596
0.633669
0.625132
0.616985
0.609224
0.601838
0.594808
0.588116
0.581744
0.575679
0.569905
0.564409
0.559173
0.554183
0.54942
0.544869
0.540511
0.536331
0.532313
0.528444
0.524709
0.521099
0.517601
0.514209
0.51091
0.507696
0.504559
0.50149
0.498479
0.495519
0.4926
0.489716
0.486859
0.484022
0.481201
0.478389
0.475582
0.472777
0.469972
0.467166
0.464358
0.461548
0.458738
0.45593
0.453124
0.450324
0.447532
0.44475
0.44198
0.439223
0.43648
0.433751
0.431034
0.428328
0.425629
0.422931
0.42023
0.417518
0.414786
0.412025
0.409225
0.406374
0.403458
0.400463
0.397369
0.394155
0.390794
0.387249
0.383471
0.379394
0.374924
0.369929
0.364207
0.357451
0.349178
0.33859
0.324397
0.304685
0.277792
0.246436
0.2208
0.207336
0.202273
0.200666
0.20019
0.200053
0.200015
0.200004
0.200001
0.2
0.2
0.2
0.2
0.2
0.2
0.2
0.2
0.2
0.2
0.2
0.2
0.2
0.2
0.2
0.2
0.2
0.2
0.2
0.2
0.2
0.2
0.2
0.2
0.2
0.2
0.2
0.2
0.2
0.2
0.2
0.2
0.2
0.2
0.2
0.2
0.2
0.2
0.2
0.2
0.2
0.2
0.2
0.2
0.2
0.2
0.2
0.2
0.2
0.740486
0.735283
0.72848
0.720498
0.711697
0.702367
0.692736
0.682981
0.673235
0.663602
0.654163
0.644977
0.636084
0.627515
0.619286
0.611404
0.603871
0.596678
0.589813
0.583263
0.57702
0.571074
0.565413
0.560026
0.554899
0.550017
0.545364
0.540923
0.536677
0.532608
0.5287
0.524939
0.521311
0.517806
0.514414
0.511126
0.507932
0.504824
0.501793
0.498828
0.495921
0.493063
0.490244
0.487456
0.48469
0.481939
0.479197
0.476457
0.473715
0.470966
0.46821
0.465443
0.462666
0.459879
0.457084
0.454284
0.45148
0.448676
0.445876
0.443082
0.440298
0.437525
0.434765
0.432019
0.429286
0.426564
0.42385
0.421139
0.418423
0.415697
0.412948
0.410167
0.407343
0.404461
0.401509
0.39847
0.395323
0.392044
0.388602
0.384955
0.381046
0.376797
0.372095
0.366776
0.360591
0.35315
0.343823
0.331572
0.314755
0.29131
0.261128
0.231323
0.212156
0.203938
0.201173
0.200336
0.200095
0.200026
0.200007
0.200002
0.200001
0.2
0.2
0.2
0.2
0.2
0.2
0.2
0.2
0.2
0.2
0.2
0.2
0.2
0.2
0.2
0.2
0.2
0.2
0.2
0.2
0.2
0.2
0.2
0.2
0.2
0.2
0.2
0.2
0.2
0.2
0.2
0.2
0.2
0.2
0.2
0.2
0.2
0.2
0.2
0.2
0.2
0.2
0.2
0.2
0.2
0.2
0.2
0.2
0.2
0.725913
0.72125
0.715174
0.708014
0.70006
0.691554
0.682696
0.673648
0.664538
0.65547
0.646528
0.637776
0.629262
0.62102
0.613073
0.605435
0.598109
0.59109
0.584373
0.577954
0.57183
0.565996
0.560443
0.555164
0.550146
0.545377
0.540841
0.53652
0.532395
0.528449
0.524663
0.521021
0.517512
0.514124
0.510849
0.507677
0.504601
0.501612
0.498701
0.495858
0.493071
0.490332
0.48763
0.484955
0.482297
0.479648
0.477
0.474347
0.471681
0.469
0.466301
0.46358
0.460839
0.458077
0.455299
0.452505
0.449701
0.446891
0.444078
0.441267
0.438463
0.435669
0.432886
0.430117
0.427363
0.424622
0.42189
0.419163
0.416433
0.41369
0.410923
0.40812
0.405269
0.402354
0.399361
0.396271
0.393063
0.389708
0.386172
0.382405
0.378339
0.373881
0.368892
0.363167
0.356388
0.348043
0.337295
0.322779
0.302499
0.274909
0.243465
0.218848
0.206487
0.201979
0.200573
0.200161
0.200045
0.200012
0.200003
0.200001
0.2
0.2
0.2
0.2
0.2
0.2
0.2
0.2
0.2
0.2
0.2
0.2
0.2
0.2
0.2
0.2
0.2
0.2
0.2
0.2
0.2
0.2
0.2
0.2
0.2
0.2
0.2
0.2
0.2
0.2
0.2
0.2
0.2
0.2
0.2
0.2
0.2
0.2
0.2
0.2
0.2
0.2
0.2
0.2
0.2
0.2
0.2
0.2
0.2
0.2
0.712307
0.708106
0.70263
0.696144
0.688884
0.68106
0.672846
0.664393
0.655823
0.647239
0.638727
0.630354
0.622171
0.614218
0.606521
0.599094
0.591944
0.585072
0.578481
0.572174
0.566153
0.560417
0.554961
0.549781
0.544869
0.540212
0.535797
0.531605
0.527614
0.523802
0.520151
0.516642
0.513263
0.510003
0.506855
0.503811
0.500866
0.498011
0.495237
0.492533
0.489887
0.487288
0.484723
0.48218
0.479651
0.477123
0.474588
0.472038
0.469465
0.466865
0.464233
0.461566
0.458866
0.456134
0.453372
0.450586
0.447779
0.444957
0.442125
0.439291
0.436459
0.433633
0.430818
0.428018
0.425236
0.422469
0.419714
0.416968
0.41422
0.411459
0.408671
0.405844
0.402961
0.400007
0.396964
0.393814
0.390533
0.387086
0.383434
0.379519
0.37526
0.370539
0.365185
0.35893
0.351355
0.341773
0.329049
0.311405
0.286782
0.255859
0.227154
0.210078
0.203178
0.200931
0.200263
0.200073
0.20002
0.200005
0.200001
0.2
0.2
0.2
0.2
0.2
0.2
0.2
0.2
0.2
0.2
0.2
0.2
0.2
0.2
0.2
0.2
0.2
0.2
0.2
0.2
0.2
0.2
0.2
0.2
0.2
0.2
0.2
0.2
0.2
0.2
0.2
0.2
0.2
0.2
0.2
0.2
0.2
0.2
0.2
0.2
0.2
0.2
0.2
0.2
0.2
0.2
0.2
0.2
0.2
0.2
0.2
0.699694
0.695868
0.69087
0.684917
0.67821
0.67093
0.663236
0.655265
0.647137
0.638953
0.630798
0.622742
0.614838
0.607126
0.599635
0.592378
0.585365
0.578607
0.572114
0.565893
0.55995
0.554289
0.548909
0.543812
0.538994
0.534445
0.530153
0.526096
0.522251
0.51859
0.515089
0.511728
0.508491
0.50537
0.50236
0.499456
0.496655
0.49395
0.491332
0.488789
0.486308
0.483873
0.48147
0.479087
0.47671
0.474328
0.471929
0.469504
0.467044
0.464541
0.46199
0.459389
0.456737
0.454038
0.451294
0.448512
0.445698
0.442858
0.44
0.437131
0.434259
0.431389
0.42853
0.42568
0.42284
0.420022
0.417235
0.414473
0.411711
0.408935
0.406129
0.403276
0.400357
0.397355
0.394252
0.391026
0.38765
0.384087
0.380288
0.376184
0.371675
0.366612
0.360771
0.353796
0.345112
0.333766
0.318212
0.296328
0.267169
0.236265
0.214642
0.204816
0.201434
0.200408
0.200114
0.200031
0.200008
0.200002
0.200001
0.2
0.2
0.2
0.2
0.2
0.2
0.2
0.2
0.2
0.2
0.2
0.2
0.2
0.2
0.2
0.2
0.2
0.2
0.2
0.2
0.2
0.2
0.2
0.2
0.2
0.2
0.2
0.2
0.2
0.2
0.2
0.2
0.2
0.2
0.2
0.2
0.2
0.2
0.2
0.2
0.2
0.2
0.2
0.2
0.2
0.2
0.2
0.2
0.2
0.2
0.2
0.688044
0.68451
0.679879
0.674334
0.66805
0.661187
0.653891
0.646292
0.638506
0.630634
0.622761
0.614954
0.607268
0.599743
0.592402
0.585265
0.578347
0.571665
0.565232
0.55906
0.553159
0.547535
0.542199
0.537155
0.532406
0.52795
0.523777
0.519864
0.516181
0.512692
0.509364
0.506168
0.503089
0.500118
0.497254
0.494501
0.491858
0.489322
0.486883
0.484529
0.482242
0.480004
0.477796
0.475604
0.473413
0.471208
0.468976
0.466705
0.464384
0.462001
0.45955
0.457028
0.454435
0.451773
0.449049
0.44627
0.443442
0.440576
0.437679
0.434761
0.431832
0.4289
0.425963
0.423018
0.420091
0.417194
0.414337
0.411533
0.40875
0.405959
0.403138
0.400262
0.39731
0.394259
0.391088
0.38777
0.384275
0.380563
0.376572
0.372217
0.367372
0.361842
0.355322
0.347318
0.337012
0.323055
0.303432
0.276423
0.244999
0.219746
0.206818
0.202073
0.200596
0.200166
0.200046
0.200012
0.200003
0.200001
0.2
0.2
0.2
0.2
0.2
0.2
0.2
0.2
0.2
0.2
0.2
0.2
0.2
0.2
0.2
0.2
0.2
0.2
0.2
0.2
0.2
0.2
0.2
0.2
0.2
0.2
0.2
0.2
0.2
0.2
0.2
0.2
0.2
0.2
0.2
0.2
0.2
0.2
0.2
0.2
0.2
0.2
0.2
0.2
0.2
0.2
0.2
0.2
0.2
0.2
0.2
0.2
0.677306
0.673991
0.66963
0.664381
0.658399
0.651831
0.644816
0.637479
0.629936
0.622286
0.614612
0.606981
0.599445
0.592039
0.584789
0.577718
0.570847
0.564193
0.557772
0.551597
0.545683
0.540042
0.534691
0.529645
0.52492
0.520525
0.516456
0.512695
0.5092
0.505917
0.502795
0.499793
0.49689
0.49408
0.491372
0.488778
0.486306
0.48396
0.48173
0.479601
0.477551
0.475553
0.473586
0.471629
0.469667
0.467683
0.465661
0.463585
0.461439
0.459208
0.456883
0.454459
0.451937
0.449321
0.446618
0.443837
0.440989
0.438084
0.435134
0.432148
0.429138
0.426114
0.42304
0.419961
0.416897
0.41387
0.410906
0.408016
0.405192
0.402372
0.399524
0.396615
0.393614
0.390496
0.387234
0.383796
0.380148
0.376237
0.371989
0.367291
0.361976
0.355776
0.348256
0.338697
0.325897
0.307987
0.282956
0.252082
0.224561
0.208911
0.202776
0.200807
0.200227
0.200063
0.200017
0.200005
0.200001
0.2
0.2
0.2
0.2
0.2
0.2
0.2
0.2
0.2
0.2
0.2
0.2
0.2
0.2
0.2
0.2
0.2
0.2
0.2
0.2
0.2
0.2
0.2
0.2
0.2
0.2
0.2
0.2
0.2
0.2
0.2
0.2
0.2
0.2
0.2
0.2
0.2
0.2
0.2
0.2
0.2
0.2
0.2
0.2
0.2
0.2
0.2
0.2
0.2
0.2
0.2
0.2
0.2
0.667427
0.66427
0.660091
0.655033
0.649238
0.642848
0.635997
0.628812
0.621408
0.613884
0.606322
0.598786
0.591322
0.583965
0.576743
0.569681
0.562799
0.556113
0.549638
0.543387
0.537378
0.53163
0.526169
0.520936
0.515889
0.511229
0.507187
0.50359
0.500344
0.49736
0.494543
0.491824
0.489169
0.486574
0.484061
0.481666
0.479415
0.47732
0.475377
0.473563
0.471845
0.470184
0.468549
0.466915
0.465263
0.463577
0.461839
0.460027
0.458118
0.456091
0.453934
0.45164
0.44921
0.446651
0.443973
0.441188
0.43831
0.435352
0.432326
0.429244
0.426118
0.422907
0.419646
0.416348
0.41304
0.409764
0.406581
0.40355
0.400664
0.397803
0.394919
0.391963
0.388894
0.385678
0.382282
0.378672
0.374802
0.370605
0.365982
0.360779
0.354756
0.347523
0.338425
0.326365
0.309601
0.286083
0.256245
0.227944
0.210586
0.203384
0.201
0.200285
0.200079
0.200022
0.200006
0.200002
0.2
0.2
0.2
0.2
0.2
0.2
0.2
0.2
0.2
0.2
0.2
0.2
0.2
0.2
0.2
0.2
0.2
0.2
0.2
0.2
0.2
0.2
0.2
0.2
0.2
0.2
0.2
0.2
0.2
0.2
0.2
0.2
0.2
0.2
0.2
0.2
0.2
0.2
0.2
0.2
0.2
0.2
0.2
0.2
0.2
0.2
0.2
0.2
0.2
0.2
0.2
0.2
0.2
0.2
0.65836
0.655304
0.651227
0.64626
0.64054
0.634207
0.6274
0.620249
0.612873
0.605372
0.597826
0.590295
0.582822
0.575443
0.568184
0.561066
0.554103
0.547307
0.540687
0.534254
0.528024
0.522023
0.51589
0.509634
0.503518
0.497766
0.492781
0.489425
0.486655
0.484294
0.48212
0.479987
0.477816
0.475604
0.473409
0.47132
0.469419
0.467746
0.4663
0.465047
0.463928
0.462869
0.461813
0.460726
0.45959
0.458391
0.45711
0.455716
0.454179
0.452468
0.450566
0.448465
0.446171
0.443696
0.441055
0.438268
0.435351
0.432322
0.429195
0.42598
0.422691
0.419241
0.415671
0.411976
0.408166
0.404306
0.400575
0.397204
0.394204
0.391289
0.388372
0.385371
0.382219
0.378866
0.375275
0.371406
0.3672
0.36256
0.35734
0.351311
0.344108
0.335125
0.323333
0.307104
0.284537
0.256001
0.228567
0.211172
0.203671
0.201109
0.200321
0.200091
0.200025
0.200007
0.200002
0.2
0.2
0.2
0.2
0.2
0.2
0.2
0.2
0.2
0.2
0.2
0.2
0.2
0.2
0.2
0.2
0.2
0.2
0.2
0.2
0.2
0.2
0.2
0.2
0.2
0.2
0.2
0.2
0.2
0.2
0.2
0.2
0.2
0.2
0.2
0.2
0.2
0.2
0.2
0.2
0.2
0.2
0.2
0.2
0.2
0.2
0.2
0.2
0.2
0.2
0.2
0.2
0.2
0.2
0.2
0.650061
0.647055
0.643002
0.638024
0.632262
0.625859
0.618963
0.611716
0.604245
0.596653
0.589019
0.581399
0.573838
0.566365
0.558997
0.551746
0.544615
0.537603
0.530708
0.523932
0.517282
0.510148
0.502472
0.494352
0.485746
0.477263
0.469527
0.465552
0.463592
0.462533
0.461728
0.460812
0.459581
0.458009
0.456235
0.454511
0.453095
0.452096
0.451528
0.451336
0.451394
0.451522
0.451589
0.451538
0.451361
0.451054
0.450603
0.449967
0.449095
0.447941
0.446481
0.444713
0.442651
0.440321
0.437752
0.434976
0.432018
0.428901
0.425639
0.422244
0.418658
0.414845
0.410764
0.406326
0.401426
0.396111
0.390898
0.386714
0.383503
0.380571
0.377708
0.374742
0.371533
0.367992
0.364072
0.359737
0.354899
0.349403
0.343009
0.335351
0.325859
0.313616
0.297245
0.275381
0.249172
0.225135
0.210082
0.203434
0.201073
0.200321
0.200093
0.200026
0.200007
0.200002
0.200001
0.2
0.2
0.2
0.2
0.2
0.2
0.2
0.2
0.2
0.2
0.2
0.2
0.2
0.2
0.2
0.2
0.2
0.2
0.2
0.2
0.2
0.2
0.2
0.2
0.2
0.2
0.2
0.2
0.2
0.2
0.2
0.2
0.2
0.2
0.2
0.2
0.2
0.2
0.2
0.2
0.2
0.2
0.2
0.2
0.2
0.2
0.2
0.2
0.2
0.2
0.2
0.2
0.2
0.2
0.2
0.642461
0.639437
0.635316
0.630229
0.624323
0.617759
0.6107
0.603213
0.595385
0.587573
0.579742
0.571946
0.564218
0.556573
0.549015
0.541536
0.53412
0.526746
0.519386
0.512013
0.504054
0.494733
0.483996
0.471932
0.45826
0.445255
0.43162
0.426736
0.426086
0.427822
0.429806
0.431242
0.431623
0.430816
0.429117
0.426082
0.424995
0.424866
0.425728
0.42751
0.429946
0.432482
0.434759
0.43668
0.438285
0.439634
0.440735
0.441532
0.441921
0.441814
0.441174
0.440012
0.438371
0.436308
0.433883
0.431153
0.428161
0.424939
0.421505
0.417863
0.413895
0.409526
0.40458
0.398716
0.391445
0.382658
0.373718
0.367941
0.364409
0.361744
0.359307
0.356682
0.353522
0.349608
0.344867
0.339301
0.332766
0.324983
0.315584
0.304153
0.290281
0.273663
0.254448
0.234378
0.217666
0.207416
0.202685
0.200888
0.200278
0.200084
0.200025
0.200007
0.200002
0.200001
0.2
0.2
0.2
0.2
0.2
0.2
0.2
0.2
0.2
0.2
0.2
0.2
0.2
0.2
0.2
0.2
0.2
0.2
0.2
0.2
0.2
0.2
0.2
0.2
0.2
0.2
0.2
0.2
0.2
0.2
0.2
0.2
0.2
0.2
0.2
0.2
0.2
0.2
0.2
0.2
0.2
0.2
0.2
0.2
0.2
0.2
0.2
0.2
0.2
0.2
0.2
0.2
0.2
0.2
0.2
0.2
0.635512
0.632388
0.628091
0.622758
0.616554
0.609665
0.602277
0.594491
0.586423
0.578393
0.56981
0.561717
0.553741
0.545842
0.537996
0.530168
0.522307
0.514353
0.506226
0.497816
0.486922
0.47322
0.456348
0.438794
0.418506
0.40377
0.385541
0.381322
0.38151
0.387379
0.392866
0.397057
0.399005
0.398141
0.392236
0.383246
0.379708
0.379833
0.382278
0.387168
0.394178
0.401348
0.407587
0.412801
0.417302
0.421386
0.425168
0.428547
0.431264
0.433095
0.433954
0.433881
0.432982
0.43139
0.429228
0.426602
0.42359
0.420246
0.416589
0.412608
0.408115
0.402917
0.396564
0.388145
0.376259
0.360588
0.344172
0.33663
0.332771
0.331362
0.330223
0.328526
0.32536
0.320035
0.312356
0.302809
0.291372
0.278164
0.263871
0.249729
0.236908
0.225908
0.216634
0.209173
0.204285
0.201729
0.200626
0.20021
0.200067
0.20002
0.200006
0.200002
0.200001
0.2
0.2
0.2
0.2
0.2
0.2
0.2
0.2
0.2
0.2
0.2
0.2
0.2
0.2
0.2
0.2
0.2
0.2
0.2
0.2
0.2
0.2
0.2
0.2
0.2
0.2
0.2
0.2
0.2
0.2
0.2
0.2
0.2
0.2
0.2
0.2
0.2
0.2
0.2
0.2
0.2
0.2
0.2
0.2
0.2
0.2
0.2
0.2
0.2
0.2
0.2
0.2
0.2
0.2
0.2
0.2
0.2
0.629172
0.625862
0.621263
0.615519
0.608823
0.601404
0.593488
0.585228
0.576783
0.568372
0.559578
0.550968
0.542115
0.53385
0.525591
0.517242
0.508696
0.499813
0.490392
0.478484
0.462652
0.440674
0.414951
0.395355
0.371778
0.365483
0.359181
0.306411
0.29173
0.36709
0.371244
0.374733
0.376081
0.373448
0.362532
0.347229
0.341792
0.339555
0.34003
0.344504
0.354902
0.3663
0.375696
0.383233
0.389906
0.396498
0.403333
0.410216
0.416436
0.421293
0.424499
0.426105
0.426332
0.425439
0.423661
0.421186
0.418151
0.414639
0.410677
0.406226
0.401015
0.394634
0.386158
0.373616
0.354046
0.32831
0.303443
0.295783
0.291121
0.292702
0.293303
0.292665
0.288401
0.278257
0.26052
0.245502
0.232302
0.221943
0.214554
0.209671
0.206587
0.204633
0.203205
0.201845
0.200899
0.200375
0.200139
0.200047
0.200015
0.200005
0.200001
0.2
0.2
0.2
0.2
0.2
0.2
0.2
0.2
0.2
0.2
0.2
0.2
0.2
0.2
0.2
0.2
0.2
0.2
0.2
0.2
0.2
0.2
0.2
0.2
0.2
0.2
0.2
0.2
0.2
0.2
0.2
0.2
0.2
0.2
0.2
0.2
0.2
0.2
0.2
0.2
0.2
0.2
0.2
0.2
0.2
0.2
0.2
0.2
0.2
0.2
0.2
0.2
0.2
0.2
0.2
0.2
0.2
0.2
0.2
0.623398
0.619804
0.614748
0.60838
0.600931
0.592708
0.584017
0.57509
0.566108
0.557184
0.548083
0.539146
0.529935
0.520135
0.511268
0.50213
0.492493
0.482044
0.47029
0.452065
0.428031
0.39374
0.361143
0.350865
0.341131
0.224523
0.200521
0.200533
0.201646
0.208692
0.298109
0.359244
0.360303
0.355193
0.336354
0.326949
0.245318
0.203232
0.214502
0.282409
0.342808
0.349795
0.355524
0.360143
0.36489
0.370865
0.378781
0.388598
0.398832
0.407436
0.413558
0.417216
0.41878
0.418683
0.417302
0.414935
0.411791
0.407997
0.403585
0.398455
0.392265
0.38427
0.372833
0.354333
0.323833
0.29047
0.273955
0.219484
0.211252
0.266892
0.263874
0.261907
0.253507
0.235609
0.215284
0.207857
0.204236
0.202359
0.201351
0.200833
0.200584
0.200505
0.20052
0.200343
0.200186
0.200081
0.20003
0.20001
0.200003
0.200001
0.2
0.2
0.2
0.2
0.2
0.2
0.2
0.2
0.2
0.2
0.2
0.2
0.2
0.2
0.2
0.2
0.2
0.2
0.2
0.2
0.2
0.2
0.2
0.2
0.2
0.2
0.2
0.2
0.2
0.2
0.2
0.2
0.2
0.2
0.2
0.2
0.2
0.2
0.2
0.2
0.2
0.2
0.2
0.2
0.2
0.2
0.2
0.2
0.2
0.2
0.2
0.2
0.2
0.2
0.2
0.2
0.2
0.2
0.2
0.2
0.618143
0.614153
0.608444
0.601152
0.59257
0.583148
0.573367
0.563543
0.553845
0.544302
0.534775
0.525376
0.515749
0.505482
0.494186
0.483739
0.472194
0.458768
0.440176
0.408816
0.377675
0.333272
0.318946
0.224252
0.200474
0.20008
0.200002
0.200002
0.200005
0.200033
0.200762
0.263219
0.33951
0.332382
0.3079
0.206204
0.20003
0.200005
0.200048
0.200789
0.272835
0.338034
0.340359
0.341146
0.342456
0.345752
0.35268
0.364826
0.380436
0.393531
0.402718
0.408353
0.411115
0.411646
0.410472
0.407993
0.404498
0.400157
0.395
0.388807
0.381212
0.371034
0.355774
0.329368
0.284723
0.257489
0.203246
0.200011
0.200015
0.200397
0.20589
0.235204
0.225037
0.208621
0.201918
0.200057
0.2
0.20001
0.2
0.2
0.200001
0.200014
0.200129
0.20007
0.200043
0.200018
0.200007
0.200002
0.200001
0.2
0.2
0.2
0.2
0.2
0.2
0.2
0.2
0.2
0.2
0.2
0.2
0.2
0.2
0.2
0.2
0.2
0.2
0.2
0.2
0.2
0.2
0.2
0.2
0.2
0.2
0.2
0.2
0.2
0.2
0.2
0.2
0.2
0.2
0.2
0.2
0.2
0.2
0.2
0.2
0.2
0.2
0.2
0.2
0.2
0.2
0.2
0.2
0.2
0.2
0.2
0.2
0.2
0.2
0.2
0.2
0.2
0.2
0.2
0.2
0.2
0.61336
0.608852
0.602233
0.59357
0.583242
0.572001
0.560686
0.54968
0.539075
0.528805
0.518711
0.508691
0.498387
0.487364
0.474746
0.459909
0.444357
0.42384
0.384533
0.331319
0.307767
0.271433
0.201662
0.200099
0.200003
0.2
0.2
0.2
0.2
0.2
0.200003
0.202107
0.232192
0.300346
0.220296
0.200381
0.200001
0.2
0.2
0.200003
0.201106
0.297789
0.24506
0.224899
0.230607
0.275717
0.316415
0.359941
0.373573
0.385599
0.394974
0.401156
0.404318
0.404925
0.403473
0.400388
0.395987
0.390449
0.383829
0.375677
0.365527
0.352239
0.332585
0.297447
0.242886
0.200939
0.200003
0.2
0.2
0.200001
0.200013
0.202988
0.207456
0.201292
0.200154
0.200005
0.2
0.2
0.2
0.2
0.2
0.2
0.2
0.200001
0.200011
0.200004
0.200001
0.2
0.2
0.2
0.2
0.2
0.2
0.2
0.2
0.2
0.2
0.2
0.2
0.2
0.2
0.2
0.2
0.2
0.2
0.2
0.2
0.2
0.2
0.2
0.2
0.2
0.2
0.2
0.2
0.2
0.2
0.2
0.2
0.2
0.2
0.2
0.2
0.2
0.2
0.2
0.2
0.2
0.2
0.2
0.2
0.2
0.2
0.2
0.2
0.2
0.2
0.2
0.2
0.2
0.2
0.2
0.2
0.2
0.2
0.2
0.2
0.2
0.2
0.2
0.609008
0.603872
0.596017
0.585268
0.572099
0.557894
0.544335
0.531739
0.520009
0.508882
0.498032
0.48713
0.475694
0.463108
0.448285
0.428087
0.399784
0.357782
0.286235
0.237611
0.202184
0.200535
0.20001
0.2
0.2
0.2
0.2
0.2
0.2
0.2
0.2
0.20001
0.203195
0.261382
0.205999
0.200064
0.2
0.2
0.2
0.2
0.209539
0.253627
0.205014
0.200216
0.200429
0.217798
0.269412
0.355991
0.36951
0.380773
0.389761
0.395752
0.398618
0.398614
0.396091
0.391325
0.384472
0.375535
0.365328
0.352793
0.336615
0.314749
0.283851
0.24158
0.210008
0.200119
0.2
0.2
0.2
0.2
0.2
0.200243
0.20107
0.200042
0.200006
0.2
0.2
0.2
0.2
0.2
0.2
0.2
0.2
0.2
0.200001
0.2
0.2
0.2
0.2
0.2
0.2
0.2
0.2
0.2
0.2
0.2
0.2
0.2
0.2
0.2
0.2
0.2
0.2
0.2
0.2
0.2
0.2
0.2
0.2
0.2
0.2
0.2
0.2
0.2
0.2
0.2
0.2
0.2
0.2
0.2
0.2
0.2
0.2
0.2
0.2
0.2
0.2
0.2
0.2
0.2
0.2
0.2
0.2
0.2
0.2
0.2
0.2
0.2
0.2
0.2
0.2
0.2
0.2
0.2
0.2
0.2
0.2
0.2
0.2
0.2
0.605063
0.599268
0.589837
0.575865
0.557573
0.537639
0.520324
0.505346
0.492308
0.480279
0.468441
0.456159
0.442637
0.426766
0.406636
0.377307
0.322329
0.247274
0.206247
0.200292
0.200012
0.200004
0.2
0.2
0.2
0.2
0.2
0.2
0.2
0.2
0.2
0.200001
0.200167
0.222961
0.200575
0.200001
0.2
0.2
0.2
0.2
0.202541
0.215453
0.200181
0.200002
0.200002
0.203309
0.237353
0.353829
0.367129
0.377983
0.386481
0.391824
0.393709
0.392058
0.386482
0.37586
0.359463
0.314897
0.296992
0.278151
0.258534
0.24152
0.229405
0.212898
0.203433
0.20006
0.2
0.2
0.2
0.2
0.2
0.200023
0.200139
0.2
0.2
0.2
0.2
0.2
0.2
0.2
0.2
0.2
0.2
0.2
0.2
0.2
0.2
0.2
0.2
0.2
0.2
0.2
0.2
0.2
0.2
0.2
0.2
0.2
0.2
0.2
0.2
0.2
0.2
0.2
0.2
0.2
0.2
0.2
0.2
0.2
0.2
0.2
0.2
0.2
0.2
0.2
0.2
0.2
0.2
0.2
0.2
0.2
0.2
0.2
0.2
0.2
0.2
0.2
0.2
0.2
0.2
0.2
0.2
0.2
0.2
0.2
0.2
0.2
0.2
0.2
0.2
0.2
0.2
0.2
0.2
0.2
0.2
0.2
0.2
0.2
0.601523
0.595245
0.584171
0.564794
0.532327
0.4881
0.451297
0.419746
0.438511
0.432133
0.419979
0.406249
0.389872
0.368621
0.340171
0.296139
0.232586
0.202353
0.200041
0.200002
0.2
0.2
0.2
0.2
0.2
0.2
0.2
0.2
0.2
0.2
0.2
0.2
0.200001
0.206684
0.200045
0.2
0.2
0.2
0.2
0.2
0.200464
0.20192
0.200002
0.2
0.2
0.200377
0.26283
0.353152
0.366189
0.376475
0.384046
0.387973
0.387484
0.381501
0.367967
0.316156
0.26653
0.2219
0.201317
0.200881
0.201435
0.201774
0.207387
0.203263
0.201405
0.200055
0.2
0.2
0.2
0.2
0.2
0.200002
0.200015
0.2
0.2
0.2
0.2
0.2
0.2
0.2
0.2
0.2
0.2
0.2
0.2
0.2
0.2
0.2
0.2
0.2
0.2
0.2
0.2
0.2
0.2
0.2
0.2
0.2
0.2
0.2
0.2
0.2
0.2
0.2
0.2
0.2
0.2
0.2
0.2
0.2
0.2
0.2
0.2
0.2
0.2
0.2
0.2
0.2
0.2
0.2
0.2
0.2
0.2
0.2
0.2
0.2
0.2
0.2
0.2
0.2
0.2
0.2
0.2
0.2
0.2
0.2
0.2
0.2
0.2
0.2
0.2
0.2
0.2
0.2
0.2
0.2
0.2
0.2
0.2
0.2
0.598362
0.592098
0.580928
0.561185
0.528664
0.485558
0.357761
0.317281
0.324254
0.330325
0.323115
0.31024
0.309428
0.284574
0.259044
0.233697
0.200799
0.200019
0.2
0.2
0.2
0.2
0.2
0.2
0.2
0.2
0.2
0.2
0.2
0.2
0.2
0.2
0.2
0.201641
0.200013
0.2
0.2
0.2
0.2
0.2
0.200077
0.200163
0.2
0.2
0.2
0.200036
0.336562
0.354613
0.366557
0.375502
0.38082
0.380791
0.373134
0.355883
0.332977
0.207003
0.201259
0.200167
0.200012
0.200008
0.200012
0.200011
0.200027
0.20017
0.200542
0.200057
0.2
0.2
0.2
0.2
0.2
0.2
0.200001
0.2
0.2
0.2
0.2
0.2
0.2
0.2
0.2
0.2
0.2
0.2
0.2
0.2
0.2
0.2
0.2
0.2
0.2
0.2
0.2
0.2
0.2
0.2
0.2
0.2
0.2
0.2
0.2
0.2
0.2
0.2
0.2
0.2
0.2
0.2
0.2
0.2
0.2
0.2
0.2
0.2
0.2
0.2
0.2
0.2
0.2
0.2
0.2
0.2
0.2
0.2
0.2
0.2
0.2
0.2
0.2
0.2
0.2
0.2
0.2
0.2
0.2
0.2
0.2
0.2
0.2
0.2
0.2
0.2
0.2
0.2
0.2
0.2
0.2
0.2
0.2
0.2
0.59538
0.589367
0.578768
0.560257
0.53038
0.49199
0.480415
0.209222
0.204805
0.200066
0.20161
0.218422
0.255719
0.207253
0.202007
0.20032
0.20001
0.2
0.2
0.2
0.2
0.2
0.2
0.2
0.2
0.2
0.2
0.2
0.2
0.2
0.2
0.2
0.2
0.200357
0.200002
0.2
0.2
0.2
0.2
0.2
0.200012
0.200012
0.2
0.2
0.2
0.207138
0.340154
0.356324
0.366906
0.373001
0.373832
0.367409
0.353337
0.337424
0.212315
0.200126
0.200016
0.200001
0.2
0.2
0.2
0.2
0.2
0.200008
0.200169
0.200019
0.2
0.2
0.2
0.2
0.2
0.2
0.2
0.2
0.2
0.2
0.2
0.2
0.2
0.2
0.2
0.2
0.2
0.2
0.2
0.2
0.2
0.2
0.2
0.2
0.2
0.2
0.2
0.2
0.2
0.2
0.2
0.2
0.2
0.2
0.2
0.2
0.2
0.2
0.2
0.2
0.2
0.2
0.2
0.2
0.2
0.2
0.2
0.2
0.2
0.2
0.2
0.2
0.2
0.2
0.2
0.2
0.2
0.2
0.2
0.2
0.2
0.2
0.2
0.2
0.2
0.2
0.2
0.2
0.2
0.2
0.2
0.2
0.2
0.2
0.2
0.2
0.2
0.2
0.2
0.2
0.2
0.2
0.2
0.2
0.592445
0.586764
0.576939
0.560139
0.53375
0.500959
0.487399
0.483189
0.200105
0.200001
0.200026
0.200344
0.201519
0.20013
0.200033
0.200003
0.2
0.2
0.2
0.2
0.2
0.2
0.2
0.2
0.2
0.2
0.2
0.2
0.2
0.2
0.2
0.2
0.2
0.200072
0.2
0.2
0.2
0.2
0.2
0.2
0.200002
0.200001
0.2
0.2
0.200006
0.212904
0.34157
0.357373
0.365336
0.36675
0.36264
0.352415
0.341066
0.223257
0.200401
0.200005
0.2
0.2
0.2
0.2
0.2
0.2
0.2
0.2
0.200047
0.200004
0.2
0.2
0.2
0.2
0.2
0.2
0.2
0.2
0.2
0.2
0.2
0.2
0.2
0.2
0.2
0.2
0.2
0.2
0.2
0.2
0.2
0.2
0.2
0.2
0.2
0.2
0.2
0.2
0.2
0.2
0.2
0.2
0.2
0.2
0.2
0.2
0.2
0.2
0.2
0.2
0.2
0.2
0.2
0.2
0.2
0.2
0.2
0.2
0.2
0.2
0.2
0.2
0.2
0.2
0.2
0.2
0.2
0.2
0.2
0.2
0.2
0.2
0.2
0.2
0.2
0.2
0.2
0.2
0.2
0.2
0.2
0.2
0.2
0.2
0.2
0.2
0.2
0.2
0.2
0.2
0.2
0.2
0.2
0.2
0.589499
0.584178
0.575186
0.560187
0.537264
0.509335
0.494104
0.486737
0.48293
0.201999
0.2
0.200005
0.200024
0.200002
0.2
0.2
0.2
0.2
0.2
0.2
0.2
0.2
0.2
0.2
0.2
0.2
0.2
0.2
0.2
0.2
0.2
0.2
0.2
0.200014
0.2
0.2
0.2
0.2
0.2
0.2
0.2
0.2
0.2
0.2
0.200052
0.219426
0.342011
0.356534
0.35961
0.356114
0.350265
0.340684
0.250869
0.200809
0.200012
0.2
0.2
0.2
0.2
0.2
0.2
0.2
0.2
0.2
0.200012
0.200001
0.2
0.2
0.2
0.2
0.2
0.2
0.2
0.2
0.2
0.2
0.2
0.2
0.2
0.2
0.2
0.2
0.2
0.2
0.2
0.2
0.2
0.2
0.2
0.2
0.2
0.2
0.2
0.2
0.2
0.2
0.2
0.2
0.2
0.2
0.2
0.2
0.2
0.2
0.2
0.2
0.2
0.2
0.2
0.2
0.2
0.2
0.2
0.2
0.2
0.2
0.2
0.2
0.2
0.2
0.2
0.2
0.2
0.2