/*--------------------------------*- C++ -*----------------------------------*\
| =========                 |                                                 |
| \\      /  F ield         | OpenFOAM: The Open Source CFD Toolbox           |
|  \\    /   O peration     | Version:  1.6                                   |
|   \\  /    A nd           | Web:      www.OpenFOAM.org                      |
|    \\/     M anipulation  |                                                 |
\*---------------------------------------------------------------------------*/
FoamFile
{
    version     2.0;
    format      ascii;
    class       volScalarField;
    location    "0.4";
    object      T;
}
// * * * * * * * * * * * * * * * * * * * * * * * * * * * * * * * * * * * * * //

dimensions      [0 0 0 0 0 0 0];

internalField   nonuniform List<scalar> 
40000
(
2.47676e-05
2.47632e-05
2.4761e-05
2.47595e-05
2.47583e-05
2.47574e-05
2.47569e-05
2.47567e-05
2.47567e-05
2.47572e-05
2.47579e-05
2.47588e-05
2.47601e-05
2.47616e-05
2.4763e-05
2.4765e-05
2.47669e-05
2.47686e-05
2.47706e-05
2.47718e-05
7.4745e-05
7.47329e-05
7.47268e-05
7.47221e-05
7.47187e-05
7.47162e-05
7.47145e-05
7.4714e-05
7.47142e-05
7.47154e-05
7.47175e-05
7.47205e-05
7.4724e-05
7.47285e-05
7.47334e-05
7.47388e-05
7.47447e-05
7.47503e-05
7.47559e-05
7.476e-05
0.000126058
0.00012604
0.00012603
0.000126023
0.000126017
0.000126013
0.00012601
0.000126009
0.00012601
0.000126012
0.000126015
0.00012602
0.000126026
0.000126034
0.000126042
0.000126051
0.000126061
0.000126071
0.00012608
0.000126088
0.000179628
0.000179603
0.000179591
0.00017958
0.000179573
0.000179567
0.000179563
0.000179562
0.000179563
0.000179566
0.000179571
0.000179578
0.000179586
0.000179597
0.000179608
0.000179621
0.000179635
0.000179649
0.000179663
0.000179675
0.000236408
0.000236378
0.000236362
0.00023635
0.00023634
0.000236333
0.000236328
0.000236327
0.000236328
0.000236331
0.000236338
0.000236347
0.000236358
0.000236371
0.000236387
0.000236403
0.000236421
0.00023644
0.000236458
0.000236474
0.000297406
0.00029737
0.000297351
0.000297336
0.000297324
0.000297315
0.00029731
0.000297308
0.00029731
0.000297314
0.000297322
0.000297333
0.000297347
0.000297364
0.000297382
0.000297403
0.000297425
0.000297448
0.000297471
0.000297491
0.000363692
0.000363651
0.000363629
0.000363611
0.000363597
0.000363587
0.000363581
0.000363579
0.000363581
0.000363587
0.000363596
0.000363609
0.000363626
0.000363646
0.000363668
0.000363693
0.00036372
0.000363747
0.000363775
0.000363799
0.000436425
0.000436377
0.000436352
0.000436332
0.000436317
0.000436306
0.000436299
0.000436296
0.000436299
0.000436305
0.000436316
0.000436332
0.000436351
0.000436374
0.000436401
0.00043643
0.000436461
0.000436493
0.000436525
0.000436554
0.000516861
0.000516808
0.00051678
0.000516758
0.000516741
0.000516728
0.000516721
0.000516718
0.000516721
0.000516729
0.000516742
0.000516759
0.000516782
0.000516808
0.000516838
0.000516872
0.000516908
0.000516944
0.000516981
0.000517015
0.000606382
0.000606323
0.000606293
0.000606268
0.000606249
0.000606235
0.000606227
0.000606225
0.000606228
0.000606237
0.000606252
0.000606272
0.000606297
0.000606327
0.000606361
0.000606399
0.00060644
0.000606481
0.000606523
0.000606561
0.00070651
0.000706445
0.000706412
0.000706385
0.000706364
0.00070635
0.000706341
0.000706339
0.000706342
0.000706353
0.000706369
0.000706392
0.000706421
0.000706454
0.000706492
0.000706534
0.00070658
0.000706626
0.000706673
0.000706716
0.000818932
0.000818862
0.000818826
0.000818797
0.000818775
0.000818759
0.00081875
0.000818748
0.000818752
0.000818764
0.000818783
0.000818808
0.000818839
0.000818877
0.000818919
0.000818965
0.000819016
0.000819066
0.000819118
0.000819165
0.000945527
0.000945452
0.000945413
0.000945382
0.000945359
0.000945342
0.000945333
0.000945331
0.000945336
0.000945349
0.00094537
0.000945398
0.000945432
0.000945473
0.00094552
0.00094557
0.000945625
0.000945681
0.000945737
0.000945789
0.00108839
0.00108831
0.00108827
0.00108824
0.00108821
0.0010882
0.00108819
0.00108818
0.00108819
0.00108821
0.00108823
0.00108826
0.0010883
0.00108834
0.00108839
0.00108845
0.00108851
0.00108857
0.00108863
0.00108868
0.00124987
0.00124979
0.00124974
0.00124971
0.00124968
0.00124967
0.00124966
0.00124966
0.00124966
0.00124968
0.0012497
0.00124974
0.00124978
0.00124982
0.00124988
0.00124994
0.00125
0.00125007
0.00125013
0.00125019
0.0014326
0.00143251
0.00143246
0.00143243
0.0014324
0.00143238
0.00143237
0.00143237
0.00143238
0.0014324
0.00143243
0.00143246
0.0014325
0.00143255
0.00143261
0.00143268
0.00143274
0.00143281
0.00143288
0.00143294
0.00163951
0.00163942
0.00163938
0.00163934
0.00163931
0.0016393
0.00163929
0.00163929
0.0016393
0.00163931
0.00163934
0.00163938
0.00163943
0.00163948
0.00163954
0.00163961
0.00163968
0.00163975
0.00163982
0.00163989
0.00187394
0.00187385
0.0018738
0.00187376
0.00187374
0.00187372
0.00187371
0.00187371
0.00187372
0.00187374
0.00187377
0.00187381
0.00187386
0.00187391
0.00187398
0.00187405
0.00187412
0.0018742
0.00187427
0.00187434
0.00213959
0.0021395
0.00213945
0.00213942
0.00213939
0.00213937
0.00213936
0.00213937
0.00213938
0.0021394
0.00213943
0.00213947
0.00213952
0.00213958
0.00213964
0.00213972
0.00213979
0.00213987
0.00213995
0.00214002
0.00244066
0.00244057
0.00244052
0.00244049
0.00244046
0.00244044
0.00244044
0.00244044
0.00244045
0.00244047
0.00244051
0.00244055
0.0024406
0.00244066
0.00244073
0.0024408
0.00244088
0.00244096
0.00244104
0.00244111
0.00278185
0.00278175
0.00278171
0.00278168
0.00278165
0.00278164
0.00278163
0.00278164
0.00278165
0.00278168
0.00278171
0.00278175
0.0027818
0.00278186
0.00278193
0.00278201
0.00278208
0.00278216
0.00278224
0.00278232
0.00316844
0.00316836
0.00316832
0.00316828
0.00316826
0.00316825
0.00316825
0.00316825
0.00316827
0.00316829
0.00316833
0.00316837
0.00316842
0.00316848
0.00316855
0.00316862
0.0031687
0.00316878
0.00316886
0.00316893
0.0036064
0.00360632
0.00360628
0.00360626
0.00360624
0.00360623
0.00360622
0.00360623
0.00360625
0.00360627
0.00360631
0.00360635
0.0036064
0.00360646
0.00360653
0.0036066
0.00360667
0.00360675
0.00360682
0.00360689
0.00410241
0.00410233
0.0041023
0.00410228
0.00410227
0.00410226
0.00410226
0.00410227
0.00410228
0.00410231
0.00410234
0.00410239
0.00410244
0.00410249
0.00410255
0.00410262
0.00410269
0.00410276
0.00410283
0.0041029
0.00466398
0.00466392
0.0046639
0.00466388
0.00466387
0.00466387
0.00466387
0.00466388
0.0046639
0.00466392
0.00466395
0.004664
0.00466404
0.00466409
0.00466415
0.00466421
0.00466428
0.00466434
0.00466441
0.00466447
0.00529958
0.00529953
0.00529952
0.0052995
0.0052995
0.0052995
0.00529951
0.00529952
0.00529954
0.00529956
0.00529959
0.00529963
0.00529967
0.00529972
0.00529977
0.00529982
0.00529988
0.00529994
0.0053
0.00530005
0.0060187
0.00601866
0.00601866
0.00601865
0.00601865
0.00601866
0.00601867
0.00601868
0.0060187
0.00601872
0.00601875
0.00601878
0.00601882
0.00601886
0.0060189
0.00601895
0.006019
0.00601904
0.00601909
0.00601914
0.006832
0.00683198
0.00683199
0.00683199
0.006832
0.00683201
0.00683202
0.00683204
0.00683205
0.00683208
0.0068321
0.00683213
0.00683216
0.00683219
0.00683222
0.00683226
0.0068323
0.00683233
0.00683237
0.0068324
0.00775147
0.00775147
0.00775149
0.0077515
0.00775152
0.00775153
0.00775155
0.00775156
0.00775158
0.0077516
0.00775162
0.00775164
0.00775166
0.00775169
0.00775171
0.00775173
0.00775176
0.00775177
0.0077518
0.00775182
0.00879056
0.00879058
0.00879061
0.00879063
0.00879066
0.00879068
0.00879069
0.00879071
0.00879072
0.00879074
0.00879075
0.00879077
0.00879078
0.00879079
0.00879081
0.00879081
0.00879083
0.00879082
0.00879083
0.00879084
0.00996437
0.00996441
0.00996445
0.00996448
0.00996451
0.00996453
0.00996455
0.00996457
0.00996458
0.00996459
0.0099646
0.00996461
0.00996461
0.00996461
0.00996461
0.0099646
0.0099646
0.00996458
0.00996457
0.00996456
0.0112898
0.0112899
0.0112899
0.01129
0.01129
0.01129
0.01129
0.0112901
0.0112901
0.0112901
0.0112901
0.0112901
0.0112901
0.0112901
0.01129
0.01129
0.01129
0.01129
0.0112899
0.0112899
0.0127859
0.012786
0.012786
0.0127861
0.0127861
0.0127861
0.0127862
0.0127862
0.0127862
0.0127862
0.0127862
0.0127862
0.0127861
0.0127861
0.0127861
0.0127861
0.012786
0.012786
0.0127859
0.0127859
0.0144739
0.014474
0.014474
0.0144741
0.0144741
0.0144742
0.0144742
0.0144742
0.0144742
0.0144742
0.0144742
0.0144741
0.0144741
0.0144741
0.014474
0.014474
0.0144739
0.0144739
0.0144738
0.0144738
0.0163776
0.0163777
0.0163778
0.0163778
0.0163779
0.0163779
0.0163779
0.0163779
0.0163779
0.0163779
0.0163779
0.0163778
0.0163778
0.0163777
0.0163777
0.0163776
0.0163776
0.0163775
0.0163774
0.0163773
0.0185237
0.0185238
0.0185239
0.0185239
0.018524
0.018524
0.018524
0.018524
0.018524
0.018524
0.0185239
0.0185239
0.0185239
0.0185238
0.0185237
0.0185237
0.0185236
0.0185235
0.0185234
0.0185233
0.020942
0.0209421
0.0209422
0.0209422
0.0209423
0.0209423
0.0209423
0.0209423
0.0209423
0.0209422
0.0209422
0.0209422
0.0209421
0.0209421
0.020942
0.0209419
0.0209419
0.0209418
0.0209417
0.0209416
0.0236659
0.023666
0.0236661
0.0236661
0.0236661
0.0236662
0.0236661
0.0236661
0.0236661
0.0236661
0.023666
0.023666
0.0236659
0.0236659
0.0236658
0.0236657
0.0236657
0.0236656
0.0236655
0.0236654
0.0267326
0.0267327
0.0267327
0.0267327
0.0267328
0.0267328
0.0267327
0.0267327
0.0267327
0.0267327
0.0267326
0.0267326
0.0267325
0.0267325
0.0267324
0.0267324
0.0267323
0.0267322
0.0267321
0.026732
0.0301836
0.0301836
0.0301837
0.0301837
0.0301837
0.0301837
0.0301836
0.0301836
0.0301836
0.0301835
0.0301835
0.0301835
0.0301834
0.0301834
0.0301833
0.0301833
0.0301832
0.0301832
0.0301831
0.030183
0.0340651
0.0340651
0.0340652
0.0340651
0.0340651
0.0340651
0.0340651
0.0340651
0.034065
0.034065
0.034065
0.034065
0.0340649
0.0340649
0.0340649
0.0340648
0.0340648
0.0340647
0.0340647
0.0340647
0.0384287
0.0384287
0.0384287
0.0384287
0.0384287
0.0384287
0.0384286
0.0384286
0.0384286
0.0384286
0.0384285
0.0384285
0.0384285
0.0384285
0.0384285
0.0384285
0.0384285
0.0384285
0.0384284
0.0384284
0.0433317
0.0433317
0.0433317
0.0433316
0.0433316
0.0433316
0.0433316
0.0433316
0.0433315
0.0433315
0.0433315
0.0433315
0.0433316
0.0433316
0.0433316
0.0433316
0.0433316
0.0433316
0.0433316
0.0433316
0.0488377
0.0488376
0.0488376
0.0488376
0.0488376
0.0488376
0.0488375
0.0488375
0.0488375
0.0488375
0.0488375
0.0488376
0.0488376
0.0488377
0.0488377
0.0488378
0.0488378
0.0488378
0.0488379
0.0488379
0.0550173
0.0550172
0.0550172
0.0550172
0.0550172
0.0550171
0.0550171
0.0550171
0.0550172
0.0550172
0.0550172
0.0550173
0.0550174
0.0550174
0.0550175
0.0550176
0.0550177
0.0550177
0.0550178
0.0550179
0.0619488
0.0619486
0.0619486
0.0619486
0.0619486
0.0619486
0.0619486
0.0619487
0.0619487
0.0619487
0.0619488
0.0619489
0.061949
0.0619491
0.0619492
0.0619493
0.0619495
0.0619495
0.0619496
0.0619497
0.0697187
0.0697186
0.0697186
0.0697186
0.0697186
0.0697186
0.0697187
0.0697187
0.0697188
0.0697188
0.0697189
0.0697191
0.0697192
0.0697193
0.0697195
0.0697196
0.0697197
0.0697198
0.0697199
0.06972
0.078423
0.0784228
0.0784229
0.0784229
0.078423
0.078423
0.078423
0.0784231
0.0784232
0.0784233
0.0784234
0.0784235
0.0784237
0.0784238
0.078424
0.0784241
0.0784243
0.0784243
0.0784244
0.0784245
0.0881674
0.0881673
0.0881674
0.0881674
0.0881675
0.0881675
0.0881676
0.0881677
0.0881677
0.0881679
0.088168
0.0881681
0.0881683
0.0881685
0.0881686
0.0881687
0.0881689
0.0881689
0.088169
0.0881691
0.0990688
0.0990687
0.0990688
0.0990689
0.099069
0.099069
0.0990691
0.0990692
0.0990692
0.0990694
0.0990695
0.0990697
0.0990698
0.09907
0.0990701
0.0990702
0.0990703
0.0990703
0.0990704
0.0990704
0.111256
0.111256
0.111256
0.111256
0.111256
0.111256
0.111256
0.111256
0.111256
0.111257
0.111257
0.111257
0.111257
0.111257
0.111257
0.111257
0.111257
0.111257
0.111257
0.111257
0.124871
0.124871
0.124871
0.124871
0.124871
0.124871
0.124871
0.124871
0.124871
0.124871
0.124871
0.124871
0.124871
0.124872
0.124872
0.124872
0.124872
0.124872
0.124872
0.124872
0.140069
0.140069
0.140069
0.140069
0.140069
0.140069
0.140069
0.140069
0.140069
0.140069
0.140069
0.140069
0.140069
0.140069
0.140069
0.140069
0.140069
0.140069
0.140069
0.140069
0.157021
0.157021
0.157021
0.157021
0.157022
0.157022
0.157022
0.157022
0.157021
0.157021
0.157021
0.157021
0.157021
0.157021
0.157021
0.157021
0.157021
0.157021
0.157021
0.157021
0.175916
0.175916
0.175916
0.175916
0.175917
0.175917
0.175916
0.175916
0.175916
0.175916
0.175916
0.175916
0.175916
0.175916
0.175916
0.175916
0.175916
0.175916
0.175916
0.175916
0.196959
0.196959
0.196959
0.196959
0.196959
0.196959
0.196959
0.196959
0.196959
0.196959
0.196959
0.196959
0.196959
0.196959
0.196958
0.196958
0.196958
0.196958
0.196958
0.196958
0.220375
0.220375
0.220375
0.220375
0.220375
0.220375
0.220375
0.220375
0.220374
0.220374
0.220374
0.220374
0.220374
0.220374
0.220374
0.220374
0.220373
0.220373
0.220373
0.220373
0.246408
0.246408
0.246408
0.246408
0.246408
0.246408
0.246408
0.246408
0.246408
0.246407
0.246407
0.246407
0.246407
0.246407
0.246407
0.246407
0.246407
0.246406
0.246406
0.246406
0.275326
0.275326
0.275326
0.275326
0.275326
0.275326
0.275326
0.275326
0.275326
0.275325
0.275325
0.275325
0.275325
0.275325
0.275325
0.275325
0.275325
0.275324
0.275324
0.275324
0.307419
0.307419
0.307419
0.307419
0.307419
0.307419
0.307419
0.307419
0.307419
0.307418
0.307418
0.307418
0.307418
0.307418
0.307418
0.307418
0.307418
0.307418
0.307418
0.307418
0.343002
0.343002
0.343002
0.343002
0.343002
0.343002
0.343002
0.343002
0.343001
0.343001
0.343001
0.343001
0.343001
0.343001
0.343001
0.343001
0.343001
0.343001
0.343001
0.343001
0.382415
0.382415
0.382415
0.382415
0.382415
0.382415
0.382415
0.382415
0.382414
0.382414
0.382414
0.382414
0.382414
0.382414
0.382414
0.382414
0.382414
0.382414
0.382414
0.382414
0.426027
0.426026
0.426027
0.426027
0.426027
0.426026
0.426026
0.426026
0.426026
0.426026
0.426025
0.426026
0.426026
0.426026
0.426026
0.426026
0.426026
0.426026
0.426026
0.426026
0.474232
0.474232
0.474232
0.474232
0.474232
0.474232
0.474232
0.474231
0.474231
0.474231
0.474231
0.474231
0.474231
0.474231
0.474231
0.474231
0.474232
0.474231
0.474231
0.474231
0.527457
0.527457
0.527458
0.527457
0.527457
0.527457
0.527457
0.527456
0.527456
0.527456
0.527456
0.527456
0.527456
0.527456
0.527457
0.527457
0.527457
0.527457
0.527457
0.527457
0.586158
0.586158
0.586159
0.586158
0.586158
0.586158
0.586157
0.586157
0.586157
0.586157
0.586156
0.586157
0.586157
0.586157
0.586158
0.586158
0.586158
0.586158
0.586158
0.586158
0.650822
0.650822
0.650822
0.650822
0.650822
0.650822
0.650821
0.650821
0.65082
0.65082
0.65082
0.65082
0.65082
0.650821
0.650821
0.650822
0.650822
0.650822
0.650822
0.650822
0.721967
0.721967
0.721968
0.721967
0.721967
0.721967
0.721966
0.721966
0.721965
0.721965
0.721964
0.721965
0.721965
0.721966
0.721966
0.721967
0.721967
0.721967
0.721967
0.721967
0.800144
0.800144
0.800144
0.800144
0.800144
0.800143
0.800142
0.800142
0.800141
0.800141
0.800141
0.800141
0.800141
0.800142
0.800142
0.800143
0.800144
0.800143
0.800143
0.800144
0.885933
0.885933
0.885934
0.885933
0.885933
0.885932
0.885932
0.885931
0.88593
0.88593
0.88593
0.88593
0.88593
0.885931
0.885932
0.885932
0.885933
0.885933
0.885933
0.885933
0.979948
0.979947
0.979948
0.979948
0.979948
0.979947
0.979946
0.979945
0.979945
0.979944
0.979944
0.979944
0.979945
0.979945
0.979946
0.979947
0.979947
0.979947
0.979947
0.979947
1.08283
1.08283
1.08283
1.08283
1.08283
1.08283
1.08283
1.08283
1.08283
1.08282
1.08282
1.08282
1.08283
1.08283
1.08283
1.08283
1.08283
1.08283
1.08283
1.08283
1.19524
1.19524
1.19524
1.19524
1.19524
1.19524
1.19524
1.19524
1.19524
1.19524
1.19524
1.19524
1.19524
1.19524
1.19524
1.19524
1.19524
1.19524
1.19524
1.19524
1.31789
1.31789
1.31789
1.31789
1.31789
1.31789
1.31789
1.31788
1.31788
1.31788
1.31788
1.31788
1.31788
1.31788
1.31789
1.31789
1.31789
1.31789
1.31789
1.31789
1.45147
1.45147
1.45147
1.45147
1.45147
1.45147
1.45147
1.45147
1.45147
1.45147
1.45147
1.45147
1.45147
1.45147
1.45147
1.45147
1.45147
1.45147
1.45147
1.45147
1.59673
1.59673
1.59673
1.59673
1.59673
1.59673
1.59673
1.59673
1.59673
1.59673
1.59673
1.59673
1.59673
1.59673
1.59673
1.59673
1.59673
1.59673
1.59673
1.59673
1.7544
1.7544
1.7544
1.7544
1.7544
1.7544
1.7544
1.7544
1.7544
1.7544
1.7544
1.7544
1.7544
1.7544
1.7544
1.7544
1.7544
1.7544
1.7544
1.7544
1.92523
1.92523
1.92523
1.92523
1.92523
1.92523
1.92523
1.92523
1.92523
1.92523
1.92523
1.92523
1.92523
1.92523
1.92523
1.92523
1.92523
1.92523
1.92523
1.92522
2.10996
2.10995
2.10996
2.10996
2.10996
2.10996
2.10995
2.10995
2.10995
2.10995
2.10995
2.10995
2.10996
2.10996
2.10996
2.10996
2.10996
2.10995
2.10995
2.10995
2.30931
2.30931
2.30931
2.30931
2.30931
2.30931
2.30931
2.30931
2.30931
2.30931
2.30931
2.30931
2.30931
2.30931
2.30931
2.30931
2.30931
2.30931
2.30931
2.30931
2.524
2.524
2.524
2.524
2.524
2.524
2.524
2.524
2.524
2.524
2.524
2.524
2.524
2.524
2.524
2.524
2.524
2.524
2.524
2.524
2.75469
2.75469
2.75469
2.75469
2.75469
2.75469
2.75469
2.75469
2.75469
2.75469
2.75469
2.75469
2.75469
2.75469
2.75469
2.75469
2.75469
2.75469
2.75469
2.75469
3.00199
3.00199
3.00199
3.00199
3.00199
3.00199
3.00199
3.00199
3.00199
3.00199
3.00199
3.00199
3.00199
3.00199
3.00199
3.00199
3.00199
3.00199
3.00199
3.00199
3.26647
3.26646
3.26647
3.26647
3.26647
3.26647
3.26647
3.26647
3.26647
3.26647
3.26647
3.26647
3.26647
3.26647
3.26647
3.26647
3.26647
3.26646
3.26646
3.26646
3.54858
3.54858
3.54858
3.54858
3.54858
3.54858
3.54858
3.54858
3.54858
3.54858
3.54858
3.54858
3.54858
3.54858
3.54858
3.54858
3.54858
3.54857
3.54857
3.54857
3.84869
3.84869
3.84869
3.84869
3.84869
3.84869
3.84869
3.84869
3.84869
3.84869
3.8487
3.8487
3.8487
3.8487
3.8487
3.8487
3.84869
3.84869
3.84869
3.84869
4.16707
4.16707
4.16707
4.16707
4.16707
4.16707
4.16707
4.16707
4.16707
4.16707
4.16707
4.16707
4.16707
4.16707
4.16707
4.16707
4.16707
4.16707
4.16707
4.16707
4.50381
4.50381
4.50381
4.50381
4.50381
4.50381
4.50381
4.50381
4.50381
4.50381
4.50381
4.50382
4.50382
4.50382
4.50382
4.50381
4.50381
4.50381
4.50381
4.50381
4.85888
4.85888
4.85888
4.85888
4.85888
4.85888
4.85888
4.85888
4.85888
4.85888
4.85888
4.85888
4.85888
4.85888
4.85888
4.85888
4.85888
4.85887
4.85887
4.85887
5.23203
5.23203
5.23203
5.23203
5.23203
5.23203
5.23203
5.23203
5.23203
5.23203
5.23203
5.23204
5.23204
5.23204
5.23204
5.23203
5.23203
5.23203
5.23203
5.23203
5.62286
5.62286
5.62286
5.62286
5.62286
5.62286
5.62286
5.62286
5.62286
5.62286
5.62286
5.62286
5.62286
5.62286
5.62286
5.62286
5.62286
5.62286
5.62286
5.62286
6.03072
6.03072
6.03072
6.03072
6.03072
6.03072
6.03072
6.03072
6.03072
6.03072
6.03072
6.03072
6.03072
6.03072
6.03072
6.03072
6.03072
6.03071
6.03071
6.03071
6.45473
6.45473
6.45474
6.45474
6.45474
6.45474
6.45474
6.45474
6.45474
6.45474
6.45474
6.45474
6.45474
6.45474
6.45474
6.45474
6.45474
6.45473
6.45473
6.45473
6.89381
6.89381
6.89381
6.89381
6.89381
6.89381
6.89381
6.89381
6.89381
6.89381
6.89381
6.89381
6.89381
6.89381
6.89381
6.89381
6.89381
6.89381
6.89381
6.89381
7.34659
7.34659
7.34659
7.34659
7.34659
7.34659
7.34659
7.34659
7.34659
7.34659
7.34659
7.34659
7.34659
7.34659
7.34659
7.34659
7.34659
7.34659
7.34659
7.34659
7.81149
7.81149
7.81149
7.81149
7.81149
7.81149
7.81149
7.81149
7.81149
7.81149
7.81149
7.81149
7.81149
7.81149
7.81149
7.81149
7.81149
7.81149
7.81149
7.81148
8.28668
8.28668
8.28668
8.28668
8.28668
8.28668
8.28668
8.28668
8.28668
8.28668
8.28668
8.28668
8.28668
8.28668
8.28668
8.28668
8.28668
8.28668
8.28668
8.28667
8.77012
8.77012
8.77012
8.77012
8.77012
8.77012
8.77012
8.77012
8.77013
8.77013
8.77012
8.77012
8.77012
8.77012
8.77012
8.77012
8.77012
8.77012
8.77012
8.77012
9.25962
9.25962
9.25962
9.25962
9.25962
9.25961
9.25961
9.25962
9.25962
9.25962
9.25961
9.25961
9.25961
9.25961
9.25961
9.25962
9.25962
9.25961
9.25961
9.25961
9.75279
9.75279
9.75279
9.75279
9.75279
9.75279
9.75279
9.75279
9.75279
9.75279
9.75279
9.75279
9.75279
9.75279
9.75279
9.75279
9.75279
9.75279
9.75279
9.75279
2.47632e-05
2.47594e-05
2.47574e-05
2.47559e-05
2.47547e-05
2.47539e-05
2.47533e-05
2.47531e-05
2.47533e-05
2.47536e-05
2.47543e-05
2.47553e-05
2.47565e-05
2.4758e-05
2.47597e-05
2.47615e-05
2.47634e-05
2.47654e-05
2.47673e-05
2.47686e-05
7.47329e-05
7.47228e-05
7.4717e-05
7.47126e-05
7.4709e-05
7.47065e-05
7.4705e-05
7.47043e-05
7.47046e-05
7.47059e-05
7.47079e-05
7.47109e-05
7.47147e-05
7.47191e-05
7.4724e-05
7.47296e-05
7.47354e-05
7.47414e-05
7.47472e-05
7.47522e-05
0.00012604
0.000126024
0.000126015
0.000126008
0.000126002
0.000125998
0.000125996
0.000125995
0.000125995
0.000125997
0.000126001
0.000126006
0.000126012
0.000126019
0.000126028
0.000126037
0.000126047
0.000126057
0.000126067
0.000126077
0.000179603
0.000179583
0.000179571
0.000179561
0.000179553
0.000179548
0.000179544
0.000179543
0.000179544
0.000179546
0.000179552
0.000179558
0.000179567
0.000179578
0.000179589
0.000179603
0.000179616
0.000179631
0.000179646
0.00017966
0.000236378
0.000236353
0.000236338
0.000236326
0.000236316
0.000236309
0.000236304
0.000236303
0.000236304
0.000236308
0.000236314
0.000236323
0.000236335
0.000236348
0.000236363
0.00023638
0.000236398
0.000236417
0.000236437
0.000236456
0.00029737
0.00029734
0.000297322
0.000297307
0.000297295
0.000297287
0.000297282
0.00029728
0.000297281
0.000297286
0.000297294
0.000297305
0.000297319
0.000297336
0.000297355
0.000297376
0.000297398
0.000297422
0.000297446
0.00029747
0.000363651
0.000363616
0.000363595
0.000363578
0.000363564
0.000363554
0.000363548
0.000363546
0.000363548
0.000363554
0.000363563
0.000363577
0.000363593
0.000363613
0.000363636
0.000363661
0.000363688
0.000363716
0.000363746
0.000363775
0.000436377
0.000436337
0.000436314
0.000436294
0.000436279
0.000436268
0.000436261
0.000436259
0.000436261
0.000436268
0.000436279
0.000436295
0.000436314
0.000436337
0.000436364
0.000436394
0.000436425
0.000436458
0.000436492
0.000436527
0.000516808
0.000516763
0.000516737
0.000516716
0.000516698
0.000516686
0.000516678
0.000516676
0.000516679
0.000516687
0.0005167
0.000516718
0.00051674
0.000516767
0.000516797
0.000516831
0.000516867
0.000516905
0.000516945
0.000516984
0.000606323
0.000606274
0.000606245
0.000606221
0.000606202
0.000606188
0.00060618
0.000606178
0.000606181
0.00060619
0.000606205
0.000606226
0.000606251
0.000606281
0.000606316
0.000606354
0.000606395
0.000606438
0.000606483
0.000606528
0.000706445
0.000706391
0.00070636
0.000706334
0.000706313
0.000706298
0.000706289
0.000706287
0.000706291
0.000706302
0.000706319
0.000706342
0.00070637
0.000706404
0.000706443
0.000706486
0.000706531
0.000706579
0.000706629
0.000706679
0.000818862
0.000818804
0.000818769
0.000818741
0.000818719
0.000818703
0.000818694
0.000818692
0.000818697
0.000818709
0.000818728
0.000818753
0.000818785
0.000818822
0.000818865
0.000818913
0.000818963
0.000819016
0.000819071
0.000819126
0.000945452
0.000945389
0.000945353
0.000945323
0.000945299
0.000945282
0.000945273
0.000945271
0.000945277
0.00094529
0.000945311
0.000945339
0.000945374
0.000945415
0.000945462
0.000945514
0.000945569
0.000945627
0.000945686
0.000945747
0.00108831
0.00108824
0.00108821
0.00108817
0.00108815
0.00108813
0.00108812
0.00108812
0.00108813
0.00108814
0.00108817
0.0010882
0.00108823
0.00108828
0.00108833
0.00108839
0.00108845
0.00108851
0.00108857
0.00108864
0.00124979
0.00124972
0.00124968
0.00124964
0.00124962
0.0012496
0.00124959
0.00124959
0.0012496
0.00124961
0.00124964
0.00124967
0.00124971
0.00124976
0.00124981
0.00124987
0.00124994
0.00125001
0.00125007
0.00125014
0.00143251
0.00143243
0.00143239
0.00143236
0.00143233
0.00143231
0.0014323
0.0014323
0.00143231
0.00143233
0.00143236
0.00143239
0.00143244
0.00143249
0.00143254
0.00143261
0.00143268
0.00143275
0.00143282
0.0014329
0.00163942
0.00163935
0.0016393
0.00163927
0.00163924
0.00163922
0.00163921
0.00163921
0.00163922
0.00163924
0.00163927
0.00163931
0.00163936
0.00163941
0.00163947
0.00163954
0.00163961
0.00163969
0.00163976
0.00163984
0.00187385
0.00187377
0.00187372
0.00187369
0.00187366
0.00187364
0.00187363
0.00187364
0.00187365
0.00187367
0.0018737
0.00187374
0.00187379
0.00187384
0.00187391
0.00187398
0.00187405
0.00187413
0.00187421
0.00187429
0.0021395
0.00213942
0.00213938
0.00213934
0.00213931
0.0021393
0.00213929
0.00213929
0.0021393
0.00213932
0.00213936
0.0021394
0.00213945
0.00213951
0.00213957
0.00213965
0.00213972
0.0021398
0.00213989
0.00213997
0.00244057
0.00244049
0.00244045
0.00244041
0.00244039
0.00244037
0.00244036
0.00244037
0.00244038
0.0024404
0.00244043
0.00244048
0.00244053
0.00244059
0.00244066
0.00244073
0.00244081
0.00244089
0.00244098
0.00244106
0.00278175
0.00278168
0.00278164
0.00278161
0.00278158
0.00278157
0.00278156
0.00278157
0.00278158
0.0027816
0.00278164
0.00278168
0.00278173
0.00278179
0.00278186
0.00278194
0.00278202
0.0027821
0.00278218
0.00278227
0.00316836
0.00316828
0.00316825
0.00316822
0.00316819
0.00316818
0.00316818
0.00316818
0.0031682
0.00316822
0.00316826
0.0031683
0.00316835
0.00316841
0.00316848
0.00316856
0.00316863
0.00316872
0.0031688
0.00316888
0.00360632
0.00360625
0.00360622
0.00360619
0.00360617
0.00360616
0.00360616
0.00360617
0.00360618
0.00360621
0.00360624
0.00360629
0.00360634
0.0036064
0.00360646
0.00360654
0.00360661
0.00360669
0.00360677
0.00360685
0.00410233
0.00410227
0.00410225
0.00410222
0.00410221
0.0041022
0.0041022
0.00410221
0.00410223
0.00410225
0.00410229
0.00410233
0.00410238
0.00410244
0.0041025
0.00410257
0.00410264
0.00410271
0.00410279
0.00410286
0.00466392
0.00466387
0.00466385
0.00466383
0.00466382
0.00466382
0.00466382
0.00466383
0.00466385
0.00466387
0.00466391
0.00466395
0.004664
0.00466405
0.00466411
0.00466417
0.00466423
0.0046643
0.00466437
0.00466444
0.00529953
0.00529949
0.00529948
0.00529947
0.00529946
0.00529946
0.00529947
0.00529948
0.0052995
0.00529952
0.00529955
0.00529959
0.00529964
0.00529968
0.00529973
0.00529979
0.00529985
0.00529991
0.00529997
0.00530002
0.00601866
0.00601863
0.00601863
0.00601863
0.00601863
0.00601863
0.00601864
0.00601866
0.00601867
0.0060187
0.00601873
0.00601876
0.0060188
0.00601884
0.00601888
0.00601893
0.00601898
0.00601903
0.00601908
0.00601912
0.00683198
0.00683197
0.00683198
0.00683198
0.00683199
0.006832
0.00683201
0.00683203
0.00683204
0.00683206
0.00683209
0.00683212
0.00683215
0.00683218
0.00683222
0.00683226
0.00683229
0.00683233
0.00683236
0.00683239
0.00775147
0.00775148
0.00775149
0.00775151
0.00775152
0.00775154
0.00775155
0.00775157
0.00775159
0.0077516
0.00775162
0.00775165
0.00775167
0.00775169
0.00775172
0.00775174
0.00775176
0.00775179
0.00775181
0.00775182
0.00879058
0.00879061
0.00879064
0.00879066
0.00879068
0.0087907
0.00879072
0.00879073
0.00879075
0.00879076
0.00879078
0.00879079
0.00879081
0.00879082
0.00879083
0.00879085
0.00879085
0.00879085
0.00879086
0.00879085
0.00996441
0.00996445
0.00996449
0.00996452
0.00996455
0.00996457
0.00996459
0.00996461
0.00996462
0.00996463
0.00996464
0.00996465
0.00996465
0.00996465
0.00996465
0.00996465
0.00996463
0.00996462
0.00996461
0.00996458
0.0112899
0.0112899
0.01129
0.01129
0.0112901
0.0112901
0.0112901
0.0112901
0.0112901
0.0112901
0.0112901
0.0112901
0.0112901
0.0112901
0.0112901
0.0112901
0.0112901
0.01129
0.01129
0.0112899
0.012786
0.012786
0.0127861
0.0127862
0.0127862
0.0127862
0.0127862
0.0127863
0.0127863
0.0127863
0.0127862
0.0127862
0.0127862
0.0127862
0.0127862
0.0127861
0.0127861
0.012786
0.012786
0.0127859
0.014474
0.0144741
0.0144741
0.0144742
0.0144742
0.0144742
0.0144743
0.0144743
0.0144743
0.0144743
0.0144742
0.0144742
0.0144742
0.0144742
0.0144741
0.0144741
0.014474
0.014474
0.0144739
0.0144738
0.0163777
0.0163778
0.0163779
0.0163779
0.0163779
0.016378
0.016378
0.016378
0.016378
0.016378
0.016378
0.0163779
0.0163779
0.0163778
0.0163778
0.0163777
0.0163777
0.0163776
0.0163775
0.0163774
0.0185238
0.0185239
0.018524
0.018524
0.0185241
0.0185241
0.0185241
0.0185241
0.0185241
0.0185241
0.018524
0.018524
0.018524
0.0185239
0.0185238
0.0185238
0.0185237
0.0185236
0.0185235
0.0185234
0.0209421
0.0209422
0.0209423
0.0209424
0.0209424
0.0209424
0.0209424
0.0209424
0.0209424
0.0209423
0.0209423
0.0209423
0.0209422
0.0209422
0.0209421
0.020942
0.0209419
0.0209418
0.0209417
0.0209416
0.023666
0.0236661
0.0236662
0.0236662
0.0236662
0.0236662
0.0236662
0.0236662
0.0236662
0.0236662
0.0236661
0.0236661
0.023666
0.023666
0.0236659
0.0236658
0.0236657
0.0236657
0.0236656
0.0236654
0.0267327
0.0267327
0.0267328
0.0267328
0.0267328
0.0267328
0.0267328
0.0267328
0.0267328
0.0267327
0.0267327
0.0267326
0.0267326
0.0267325
0.0267325
0.0267324
0.0267323
0.0267323
0.0267322
0.026732
0.0301836
0.0301837
0.0301837
0.0301837
0.0301837
0.0301837
0.0301837
0.0301837
0.0301836
0.0301836
0.0301835
0.0301835
0.0301835
0.0301834
0.0301834
0.0301833
0.0301833
0.0301832
0.0301831
0.030183
0.0340651
0.0340651
0.0340652
0.0340652
0.0340652
0.0340651
0.0340651
0.0340651
0.034065
0.034065
0.034065
0.034065
0.0340649
0.0340649
0.0340649
0.0340649
0.0340648
0.0340648
0.0340647
0.0340646
0.0384287
0.0384287
0.0384287
0.0384287
0.0384287
0.0384287
0.0384286
0.0384286
0.0384286
0.0384285
0.0384285
0.0384285
0.0384285
0.0384285
0.0384285
0.0384285
0.0384285
0.0384285
0.0384284
0.0384283
0.0433317
0.0433316
0.0433316
0.0433316
0.0433316
0.0433316
0.0433315
0.0433315
0.0433315
0.0433315
0.0433315
0.0433315
0.0433315
0.0433315
0.0433315
0.0433316
0.0433316
0.0433316
0.0433316
0.0433315
0.0488376
0.0488376
0.0488376
0.0488375
0.0488375
0.0488375
0.0488375
0.0488375
0.0488375
0.0488375
0.0488375
0.0488375
0.0488376
0.0488376
0.0488377
0.0488377
0.0488378
0.0488378
0.0488378
0.0488378
0.0550172
0.0550171
0.0550171
0.0550171
0.0550171
0.0550171
0.0550171
0.0550171
0.0550171
0.0550171
0.0550172
0.0550172
0.0550173
0.0550174
0.0550175
0.0550176
0.0550176
0.0550177
0.0550178
0.0550177
0.0619486
0.0619485
0.0619486
0.0619486
0.0619485
0.0619486
0.0619486
0.0619486
0.0619486
0.0619487
0.0619487
0.0619488
0.061949
0.0619491
0.0619492
0.0619493
0.0619494
0.0619495
0.0619496
0.0619496
0.0697186
0.0697185
0.0697185
0.0697186
0.0697186
0.0697186
0.0697186