/*--------------------------------*- C++ -*----------------------------------*\
| =========                 |                                                 |
| \\      /  F ield         | OpenFOAM: The Open Source CFD Toolbox           |
|  \\    /   O peration     | Version:  2.1.0                                 |
|   \\  /    A nd           | Web:      www.OpenFOAM.org                      |
|    \\/     M anipulation  |                                                 |
\*---------------------------------------------------------------------------*/
FoamFile
{
    version     2.0;
    format      ascii;
    class       surfaceScalarField;
    location    "8030";
    object      phi_o;
}
// * * * * * * * * * * * * * * * * * * * * * * * * * * * * * * * * * * * * * //

dimensions      [1 -2 -2 0 0 0 0];

internalField   nonuniform List<scalar> 
208750
(
0.689322
0.681389
-0.993189
1.17404
0.61371
-0.76715
1.4597
0.52215
-0.517938
1.61147
0.434742
-0.32719
1.68759
0.361467
-0.20029
1.72622
0.303184
-0.120996
1.74937
0.257622
-0.0725771
1.76883
0.221984
-0.0428818
1.79069
0.193861
-0.0241977
1.81807
0.171418
-0.0119549
1.85269
0.153358
-0.00358747
1.89591
0.138821
0.00223691
1.94917
0.127379
0.00579871
2.01381
0.11883
0.0061995
2.09148
0.113325
0.00172657
2.18589
0.11128
-0.00945775
2.30046
0.113682
-0.0312624
2.43194
0.120303
-0.0699737
2.56016
0.127092
-0.127646
2.65296
0.126344
-0.185055
2.69734
0.116538
-0.193273
2.6974
0.102667
-0.13297
2.66535
0.0876314
-0.0667852
2.6191
0.0741975
-0.0308639
2.56971
0.0633367
-0.0146046
2.52189
0.0548329
-0.00715128
2.4772
0.0482539
-0.0035916
2.43581
0.0432143
-0.00183511
2.39736
0.0393981
-0.000950693
2.36131
0.0365517
-0.000498616
2.3271
0.0344746
-0.000262296
2.29423
0.0330007
-0.000138982
2.2623
0.0320011
-7.41859e-05
2.23097
0.0313729
-3.89467e-05
2.19996
0.0310316
-1.9879e-05
2.16906
0.0309082
-1.02115e-05
2.13812
0.0309455
-4.83161e-06
2.10703
0.0310925
-2.41677e-06
2.07573
0.0313025
-1.46204e-06
2.0442
0.0315328
-1.35154e-07
2.01246
0.0317414
-1.33122e-07
1.98057
0.0318913
-1.01901e-06
1.94861
0.031951
-1.10764e-06
1.91672
0.0318937
5.61031e-08
1.88502
0.0316974
8.7738e-07
1.85368
0.0313468
1.27894e-07
1.82284
0.0308356
-6.68989e-07
1.79268
0.0301643
-3.45849e-07
1.76334
0.029338
1.04694e-07
1.73497
0.0283675
-2.04322e-07
1.7077
0.0272691
-6.24742e-07
1.68164
0.0260635
-3.41223e-07
1.65687
0.0247732
3.03658e-07
1.63345
0.0234226
5.42705e-07
1.61141
0.0220378
2.00585e-07
1.59076
0.0206453
-2.76666e-07
1.57149
0.019271
-3.77428e-07
1.55356
0.0179386
-1.88561e-07
1.53689
0.0166696
-1.71157e-07
1.52141
0.0154836
-3.43825e-07
1.50701
0.0143978
-4.12431e-07
1.49359
0.0134256
-3.36858e-07
1.48101
0.0125761
-2.0218e-07
1.46916
0.0118543
-6.84722e-08
1.4579
0.01126
-8.86348e-08
1.44711
0.0107883
-2.62455e-07
1.43668
0.01043
-3.11963e-07
1.42651
0.0101716
-1.41134e-07
1.41652
0.00999661
4.74975e-08
1.40663
0.00988712
2.22808e-07
1.3968
0.00982509
5.4012e-07
1.38701
0.00979351
8.86723e-07
1.37723
0.00977728
9.4611e-07
1.36747
0.00976413
6.60471e-07
1.35772
0.00974484
2.54196e-07
1.34801
0.00971292
-7.03394e-08
1.33834
0.00966397
-2.20591e-07
1.32874
0.00959463
-1.92541e-07
1.31924
0.00950157
-1.26674e-07
1.30986
0.00938114
-1.88579e-07
1.30063
0.00922964
-3.0639e-07
1.29159
0.00904331
-2.44706e-07
1.28277
0.00881793
1.0662e-08
1.27422
0.008549
1.96613e-07
1.26599
0.00823262
1.75673e-07
1.25813
0.0078663
1.34503e-07
1.25068
0.00744878
2.50167e-07
1.2437
0.00697945
3.80721e-07
1.23724
0.00645802
2.76339e-07
1.23135
0.00588448
-3.49391e-08
1.22609
0.00525881
-2.64326e-07
1.22151
0.00458046
-2.1788e-07
1.21766
0.00384765
1.66392e-08
1.21461
0.00305706
2.33442e-07
1.2124
0.00220346
3.37117e-07
1.21112
0.00127939
3.75125e-07
1.21085
0.000274895
4.24552e-07
1.21167
-0.000822766
4.99689e-07
1.2137
-0.00202938
5.39176e-07
1.21706
-0.00336413
4.53275e-07
1.22191
-0.00484986
2.08958e-07
1.22842
-0.00651325
-1.03748e-07
1.23681
-0.00838491
-3.11065e-07
1.24731
-0.0104993
-2.99128e-07
1.2602
-0.0128946
-1.2124e-07
1.27581
-0.0156117
5.87634e-08
1.2945
-0.0186923
1.27705e-07
1.31668
-0.0221766
1.05982e-07
1.34278
-0.0260982
7.51888e-08
1.37325
-0.0304773
6.73326e-08
1.40857
-0.0353113
5.69653e-08
1.44913
-0.040561
3.76422e-08
1.49526
-0.0461353
5.16993e-08
1.54714
-0.0518747
1.22207e-07
1.60468
-0.0575409
1.85288e-07
1.6675
-0.0628206
1.31156e-07
1.73486
-0.067362
-7.44594e-08
1.80571
-0.0708578
-3.25543e-07
1.8789
-0.0731851
-4.51274e-07
1.95348
-0.0745748
-3.63282e-07
2.02921
-0.075734
-1.29062e-07
2.10702
-0.0778128
9.52114e-08
2.18918
-0.0821591
1.96652e-07
2.27911
-0.0899304
1.74588e-07
2.38075
-0.101635
9.88921e-08
2.49732
-0.116574
2.40016e-08
2.62947
-0.132152
-4.69754e-08
2.77266
-0.143184
-1.24638e-07
2.91461
-0.141956
-1.81511e-07
3.03544
-0.120827
-1.55115e-07
3.11478
-0.079341
-9.89075e-09
3.14578
-0.0309935
2.0664e-07
3.13278
0.0129989
3.77278e-07
3.08359
0.04919
3.94185e-07
3.00644
0.0771446
2.35137e-07
2.90781
0.0986307
-2.55941e-08
2.7911
0.116704
-2.73785e-07
2.65587
0.135231
-4.26886e-07
2.49939
0.156485
-4.66981e-07
2.3193
0.180092
-4.23426e-07
2.11567
0.203629
-3.34556e-07
1.89206
0.223614
-2.246e-07
1.65473
0.237334
-1.08526e-07
1.41066
0.244068
-9.1859e-09
1.16573
0.244928
3.82515e-08
0.923811
0.241922
4.64115e-09
0.686697
0.237114
-1.05752e-07
0.454514
0.232184
-2.43706e-07
0.226205
0.228309
-3.31607e-07
0.226206
-2.90737e-07
0.621643
1.15798
-0.767118
1.08248
1.0664
-0.613525
1.3723
0.932588
-0.429719
1.5382
0.796055
-0.279845
1.62931
0.675391
-0.175415
1.68066
0.575455
-0.107842
1.71373
0.494891
-0.0653704
1.74071
0.430415
-0.0386524
1.76825
0.37868
-0.0214461
1.80001
0.336924
-0.00993164
1.83815
0.303101
-0.00193843
1.88447
0.27583
0.00364066
1.94062
0.254394
0.00681584
2.0083
0.23842
0.00643886
2.08944
0.228068
0.000478366
2.18829
0.224107
-0.0130935
2.30709
0.227351
-0.0391313
2.43873
0.23591
-0.0835502
2.55941
0.24201
-0.14389
2.64316
0.236364
-0.191885
2.68347
0.219368
-0.180295
2.68237
0.195354
-0.114554
2.65192
0.168622
-0.0579665
2.60824
0.144105
-0.0280763
2.5612
0.123729
-0.013767
2.51531
0.107508
-0.00686437
2.47216
0.0948658
-0.00347395
2.432
0.0851534
-0.00178206
2.39452
0.0777987
-0.000925209
2.35923
0.0723236
-0.000484716
2.32562
0.0683365
-0.000255702
2.29323
0.0655231
-0.0001356
2.26168
0.0636311
-7.19678e-05
2.23063
0.0624586
-3.76753e-05
2.19984
0.0618444
-1.9228e-05
2.1691
0.0616555
-9.46898e-06
2.13827
0.0617811
-4.84962e-06
2.10724
0.062122
-2.61958e-06
2.07596
0.0625858
-9.71792e-07
2.04441
0.0630853
-7.27833e-07
2.01261
0.0635396
-1.325e-06
1.98063
0.0638736
-1.34401e-06
1.94856
0.0640211
-1.75538e-07
1.91652
0.0639266
8.63047e-07
1.88467
0.0635465
2.53744e-07
1.85316
0.0628529
-7.97064e-07
1.82217
0.0618325
-6.83724e-07
1.79185
0.0604845
-1.32586e-08
1.76237
0.0588203
-3.53384e-08
1.73387
0.0568635
-5.32529e-07
1.7065
0.0546474
-5.32023e-07
1.68035
0.0522126
4.02451e-09
1.65552
0.0496058
4.28985e-07
1.63206
0.0468784
4.07693e-07
1.61002
0.0440835
1.02511e-07
1.58939
0.0412742
-4.54447e-08
1.57016
0.0385019
9.89448e-08
1.55229
0.0358144
1.53813e-07
1.5357
0.0332562
-4.12347e-08
1.52032
0.0308676
-2.07361e-07
1.50604
0.028683
-2.24291e-07
1.49274
0.0267292
-1.60493e-07
1.48029
0.0250254
-3.12066e-08
1.46857
0.0235814
6.00448e-09
1.45743
0.0223973
-2.08803e-07
1.44676
0.0214634
-4.35733e-07
1.43643
0.0207602
-3.77319e-07
1.42634
0.0202598
-1.52108e-07
1.41641
0.0199281
7.03976e-08
1.40657
0.0197276
4.0827e-07
1.39677
0.0196206
8.4798e-07
1.38699
0.0195717
1.036e-06
1.37722
0.0195505
7.79462e-07
1.36745
0.0195329
3.07957e-07
1.35769
0.0195007
-8.93733e-08
1.34796
0.0194418
-3.21146e-07
1.33827
0.0193479
-3.85049e-07
1.32865
0.0192127
-3.22682e-07
1.31912
0.0190301
-2.54167e-07
1.30971
0.0187934
-2.29787e-07
1.30044
0.0184953
-1.35456e-07
1.29136
0.0181274
7.45131e-08
1.2825
0.0176803
2.08988e-07
1.27391
0.017145
1.19537e-07
1.26563
0.0165144
-8.76207e-09
1.25771
0.0157834
9.38444e-08
1.25021
0.0149493
3.39378e-07
1.24317
0.0140106
3.62269e-07
1.23666
0.0129674
3.29546e-08
1.23073
0.0118204
-3.45287e-07
1.22541
0.0105701
-4.12688e-07
1.22078
0.00921553
-1.55881e-07
1.21687
0.00775333
1.53895e-07
1.21375
0.00617729
3.06381e-07
1.21148
0.00447737
3.23727e-07
1.21012
0.00263904
3.42731e-07
1.20975
0.000642692
4.34174e-07
1.21046
-0.00153692
5.43184e-07
1.21236
-0.00393112
5.44668e-07
1.21558
-0.00657798
3.46824e-07
1.22025
-0.00952288
-1.20363e-08
1.22655
-0.012819
-3.5109e-07
1.23469
-0.0165276
-4.69805e-07
1.24491
-0.0207181
-3.19666e-07
1.25748
-0.0254677
-4.81141e-08
1.27273
-0.0308598
1.43521e-07
1.29102
-0.0369809
1.75891e-07
1.31276
-0.0439158
1.16558e-07
1.3384
-0.0517387
5.94773e-08
1.36842
-0.0605
2.67482e-08
1.40332
-0.0702072
-4.6648e-09
1.44355
-0.0807978
-2.79188e-08
1.48952
-0.0921055
-6.60293e-09
1.54147
-0.103823
5.24215e-08
1.5994
-0.115469
6.84204e-08
1.66295
-0.12638
-3.8397e-08
1.73136
-0.13577
-2.4324e-07
1.80339
-0.142884
-4.10223e-07
1.87751
-0.147307
-4.05628e-07
1.95232
-0.149379
-2.20089e-07
2.02713
-0.150548
2.40379e-08
2.10268
-0.153358
1.8269e-07
2.18141
-0.160893
2.03865e-07
2.26741
-0.175928
1.40528e-07
2.36581
-0.200034
7.07523e-08
2.48174
-0.232511
2.05828e-08
2.61844
-0.26885
-3.46563e-08
2.77388
-0.298626
-1.08093e-07
2.93574
-0.303814
-1.57487e-07
3.07693
-0.262011
-1.14263e-07
3.16313
-0.165543
4.16212e-08
3.18977
-0.0576323
2.39775e-07
3.16897
0.0337983
3.6051e-07
3.11154
0.106616
3.22525e-07
3.02793
0.160757
1.39392e-07
2.92588
0.200674
-9.7576e-08
2.80963
0.232955
-2.86571e-07
2.67713
0.267736
-3.74721e-07
2.523
0.310617
-3.69731e-07
2.34284
0.360255
-3.09962e-07
2.13566
0.410809
-2.28045e-07
1.90578
0.453495
-1.37593e-07
1.66146
0.481654
-4.60504e-08
1.41152
0.494009
2.76495e-08
1.16273
0.493721
5.29235e-08
0.919003
0.485646
8.26003e-09
0.681767
0.47435
-9.49467e-08
0.450639
0.463313
-2.07913e-07
0.224102
0.454848
-2.65019e-07
0.45031
-2.0995e-07
0.530065
1.43521
-0.517815
0.948667
1.34774
-0.429636
1.23576
1.21114
-0.314791
1.41753
1.06229
-0.213754
1.52937
0.922937
-0.138774
1.6001
0.801849
-0.0875869
1.64925
0.700368
-0.0538673
1.68897
0.616616
-0.0317336
1.72649
0.547803
-0.0169119
1.76619
0.491288
-0.0066607
1.81088
0.444954
0.000588746
1.86303
0.407447
0.00557317
1.92465
0.377915
0.00781062
1.99795
0.356077
0.00579025
2.08548
0.342052
-0.00285901
2.19154
0.336972
-0.0207597
2.31564
0.34067
-0.0536142
2.44483
0.34816
-0.105327
2.55377
0.348433
-0.164925
2.62616
0.334585
-0.193885
2.65946
0.309238
-0.15734
2.65564
0.275565
-0.0916319
2.6274
0.239506
-0.0469938
2.58786
0.206443
-0.023834
2.54498
0.178538
-0.0121496
2.50267
0.156003
-0.0062187
2.46244
0.13828
-0.0032004
2.42464
0.124614
-0.00165901
2.38904
0.114264
-0.000867346
2.35524
0.106578
-0.000456529
2.32281
0.101012
-0.00024101
2.29134
0.0971186
-0.000128416
2.2605
0.0945378
-6.85314e-05
2.23002
0.0929847
-3.57919e-05
2.19965
0.0922294
-1.87194e-05
2.16922
0.0920879
-9.70197e-06
2.13861
0.0924021
-4.90323e-06
2.10771
0.0930283
-2.62406e-06
2.07646
0.0938329
-1.16227e-06
2.04486
0.0946855
-7.1571e-07
2.01294
0.0954606
-1.13397e-06
1.98077
0.0960434
-1.01024e-06
1.94846
0.0963328
-1.69493e-07
1.91614
0.096243
-3.74885e-08
1.88398
0.0957086
-9.03528e-07
1.85214
0.0946869
-1.31698e-06
1.82082
0.0931578
-6.72546e-07
1.79018
0.0911211
-1.65364e-08
1.76041
0.088596
-4.86589e-08
1.73166
0.0856196
-3.28988e-07
1.70406
0.0822436
-4.08528e-07
1.67774
0.078532
-2.3996e-07
1.65279
0.0745586
6.02322e-08
1.62927
0.0704023
2.12022e-07
1.60721
0.0661445
1.75112e-07
1.58662
0.0618665
2.24904e-07
1.56747
0.0576467
2.92856e-07
1.54973
0.0535588
1.17324e-07
1.53331
0.0496715
-1.36547e-07
1.51814
0.0460465
-2.23395e-07
1.50408
0.0427361
-1.97157e-07
1.49103
0.0397821
-8.90414e-08
1.47885
0.0372142
7.62302e-08
1.46738
0.0350483
5.86469e-08
1.4565
0.0332847
-1.9989e-07
1.44605
0.0319082
-3.76452e-07
1.43592
0.030888
-3.1215e-07
1.42601
0.0301797
-1.81667e-07
1.41621
0.0297286
-1.63309e-08
1.40646
0.0294746
3.1846e-07
1.39672
0.0293576
6.89181e-07
1.38697
0.0293219
7.76315e-07
1.3772
0.0293204
5.19433e-07
1.36742
0.0293163
1.21039e-07
1.35763
0.0292838
-2.40056e-07
1.34786
0.0292064
-4.60537e-07
1.33814
0.0290739
-4.77814e-07
1.32847
0.0288787
-3.59046e-07
1.31889
0.028613
-2.47124e-07
1.30941
0.0282677
-1.42648e-07
1.30008
0.0278314
5.17584e-08
1.29092
0.0272906
2.50749e-07
1.28197
0.0266302
2.28047e-07
1.27328
0.0258358
2.84945e-09
1.2649
0.0248964
-1.01835e-07
1.25687
0.023804
8.09914e-08
1.24927
0.0225545
2.82414e-07
1.24213
0.0211464
1.59958e-07
1.23552
0.0195809
-2.21191e-07
1.22948
0.0178602
-4.71745e-07
1.22406
0.0159861
-3.65701e-07
1.21932
0.0139582
-5.6787e-08
1.2153
0.0117728
1.79809e-07
1.21205
0.00942137
2.57754e-07
1.20964
0.00688976
2.8368e-07
1.20812
0.00415685
3.65103e-07
1.20757
0.00119388
4.95499e-07
1.20807
-0.00203627
5.81887e-07
1.20972
-0.00557988
5.21568e-07
1.21263
-0.00949339
2.75053e-07
1.21695
-0.0138443
-7.76854e-08
1.22284
-0.0187119
-3.55145e-07
1.2305
-0.0241882
-4.01772e-07
1.24016
-0.0303779
-2.25901e-07
1.25209
-0.0373985
6.6193e-09
1.26661
-0.0453789
1.30401e-07
1.28408
-0.0544558
1.18337e-07
1.30493
-0.064767
5.73818e-08
1.32964
-0.0764408
2.12485e-08
1.35871
-0.089577
5.35056e-09
1.39273
-0.10422
-2.13349e-08
1.43224
-0.120317
-4.9401e-08
1.4778
-0.137666
-4.68981e-08
1.52982
-0.155843
-2.67937e-08
1.58848
-0.17413
-5.6084e-08
1.65357
-0.191462
-1.77458e-07
1.72425
-0.206453
-3.35486e-07
1.79896
-0.217599
-4.05883e-07
1.87544
-0.22378
-3.10038e-07
1.95115
-0.225088
-9.54933e-08
2.02432
-0.22372
1.03531e-07
2.09514
-0.22418
1.84027e-07
2.16638
-0.232127
1.50565e-07
2.2433
-0.252855
8.30514e-08
2.33333
-0.290061
4.34793e-08
2.4454
-0.344584
2.32003e-08
2.58867
-0.412112
-2.21416e-08
2.7687
-0.478655
-9.82436e-08
2.97755
-0.512664
-1.44325e-07
3.17339
-0.457858
-8.59345e-08
3.27104
-0.263189
8.24248e-08
3.2812
-0.0677911
2.68836e-07
3.24179
0.0732112
3.52043e-07
3.16568
0.182717
2.7336e-07
3.06784
0.258595
7.25413e-08
2.95816
0.310353
-1.48877e-07
2.84441
0.346706
-2.99089e-07
2.72001
0.392143
-3.45747e-07
2.57264
0.457991
-3.13427e-07
2.39339
0.5395
-2.46398e-07
2.17834
0.625858
-1.73434e-07
1.93394
0.697903
-1.00674e-07
1.67382
0.741778
-2.91784e-08
1.41123
0.756592
2.66255e-08
1.15465
0.750302
4.06189e-08
0.907707
0.73259
-4.06908e-09
0.67073
0.711328
-9.42991e-08
0.442175
0.691869
-1.85771e-07
0.219563
0.677461
-2.23192e-07
0.669874
-1.59506e-07
0.4426
1.57822
-0.326939
0.812069
1.50481
-0.279645
1.08691
1.38395
-0.213644
1.27818
1.24442
-0.151318
1.40828
1.10648
-0.101882
1.49862
0.980697
-0.0659943
1.5655
0.870865
-0.0409681
1.62016
0.7771
-0.0236421
1.66998
0.697957
-0.011469
1.71985
0.631626
-0.00273558
1.77337
0.576516
0.00352901
1.8335
0.531618
0.00746553
1.90281
0.496269
0.00805627
1.98392
0.470451
0.00327978
2.0804
0.45449
-0.00935083
2.19523
0.44946
-0.033668
2.32313
0.452802
-0.075327
2.4451
0.455158
-0.13302
2.53992
0.445159
-0.18341
2.60081
0.42112
-0.183299
2.62578
0.385768
-0.126742
2.61958
0.342807
-0.069753
2.59434
0.299206
-0.0367151
2.55996
0.259682
-0.0193649
2.52245
0.226144
-0.0102
2.48494
0.198843
-0.00535612
2.44878
0.177257
-0.00281148
2.41429
0.160582
-0.0014795
2.38136
0.147979
-0.000781547
2.34968
0.138672
-0.000414149
2.31891
0.131995
-0.000220605
2.28876
0.12739
-0.00011842
2.25895
0.124412
-6.34145e-05
2.22926
0.122708
-3.37728e-05
2.19951
0.122
-1.76536e-05
2.16954
0.122065
-9.3588e-06
2.13924
0.12271
-5.28204e-06
2.10851
0.123758
-1.93224e-06
2.07731
0.125034
-3.69132e-07
2.04564
0.126362
-1.06482e-06
2.01353
0.127573
-1.7362e-06
1.98106
0.128508
-1.17405e-06
1.94837
0.129024
-4.62589e-07
1.91561
0.129004
-9.59522e-07
1.88296
0.128358
-1.78427e-06
1.85061
0.12703
-1.38783e-06
1.81878
0.124992
-2.47938e-07
1.78766
0.122247
3.22948e-07
1.75743
0.118823
7.00711e-08
1.72828
0.114774
-5.22785e-07
1.70035
0.110174
-8.39937e-07
1.67377
0.105113
-5.19775e-07
1.64863
0.0996954
2.79506e-08
1.62501
0.0940288
2.27696e-07
1.60293
0.0882264
2.28361e-07
1.5824
0.0824002
2.74099e-07
1.56338
0.0766577
1.4027e-07
1.54584
0.0711007
-1.6142e-07
1.52969
0.0658234
-2.86517e-07
1.51483
0.0609098
-2.37158e-07
1.50113
0.0564319
-1.63994e-07
1.48847
0.0524483
3.29255e-08
1.47668
0.049001
2.78036e-07
1.46562
0.0461127
2.43809e-07
1.45512
0.043785
-3.18496e-08
1.44503
0.0419968
-2.02971e-07
1.43522
0.0407041
-2.34554e-07
1.42555
0.0398425
-2.96935e-07
1.41595
0.0393319
-2.8474e-07
1.40634
0.0390848
-8.26913e-09
1.39669
0.0390136
3.81034e-07
1.38697
0.0390384
5.47668e-07
1.3772
0.039093
3.61493e-07
1.36738
0.0391282
-4.7753e-08
1.35755
0.0391121
-4.32459e-07
1.34773
0.039027
-5.72711e-07
1.33794
0.0388636
-4.55795e-07
1.3282
0.0386156
-2.84669e-07
1.31854
0.0382758
-1.82369e-07
1.30898
0.0378334
-3.11557e-08
1.29954
0.0372726
2.33912e-07
1.29026
0.0365733
3.8155e-07
1.28117
0.035713
1.95656e-07
1.27234
0.0346711
-1.25675e-07
1.2638
0.0334311
-1.89458e-07
1.25562
0.031982
3.43998e-08
1.24786
0.0303183
1.68634e-07
1.24057
0.0284397
-3.40187e-08
1.2338
0.0263497
-3.63476e-07
1.2276
0.0240535
-4.59988e-07
1.22203
0.0215559
-2.60839e-07
1.21713
0.0188584
3.39242e-09
1.21295
0.0159582
1.46048e-07
1.20952
0.0128458
1.97544e-07
1.20691
0.00950355
2.72906e-07
1.20516
0.00590474
4.04025e-07
1.20434
0.00201232
5.32034e-07
1.20453
-0.00222189
5.80058e-07
1.2058
-0.00685834
4.91389e-07
1.20828
-0.011971
2.54229e-07
1.21208
-0.0176488
-5.57102e-08
1.21737
-0.0239962
-2.84698e-07
1.22431
-0.0311355
-3.12762e-07
1.23314
-0.0392068
-1.68274e-07
1.24411
-0.0483696
-1.70257e-09
1.25753
-0.0588016
6.37447e-08
1.27377
-0.0706961
3.39151e-08
1.29326
-0.0842558
-6.77937e-09
1.3165
-0.0996806
-1.1516e-08
1.34407
-0.117148
-5.97447e-09
1.37663
-0.136778
-2.48665e-08
1.4149
-0.158585
-5.79385e-08
1.45963
-0.182398
-7.75735e-08
1.51154
-0.207752
-9.54124e-08
1.57115
-0.233745
-1.56304e-07
1.63857
-0.258883
-2.68797e-07
1.7131
-0.280979
-3.63723e-07
1.79278
-0.29728
-3.46602e-07
1.87413
-0.305126
-1.95982e-07
1.95251
-0.303471
2.07183e-09
2.02386
-0.295067
1.26588e-07
2.08719
-0.287513
1.2779e-07
2.14565
-0.290581
5.91535e-08
2.2061
-0.313305
9.12587e-09
2.27881
-0.362773
9.95442e-09
2.37788
-0.443652
1.71522e-08
2.52212
-0.556359
-2.55532e-08
2.73469
-0.691219
-1.09032e-07
3.03235
-0.810329
-1.52209e-07
3.36806
-0.793569
-7.6273e-08
3.46644
-0.361563
1.08744e-07
3.4222
-0.0235546
2.81666e-07
3.35129
0.14412
3.24773e-07
3.24156
0.292446
2.09512e-07
3.1196
0.380551
4.62933e-10
2.99452
0.43544
-1.95931e-07
2.88985
0.451372
-3.0177e-07
2.78586
0.496137
-3.07236e-07
2.65414
0.589706
-2.5246e-07
2.47975
0.713896
-1.84808e-07
2.25039
0.85522
-1.26817e-07
1.97781
0.970481
-7.56772e-08
1.68863
1.03096
-2.54213e-08
1.40494
1.04028
1.45674e-08
1.13694
1.01831
2.26773e-08
0.886446
0.983083
-1.48912e-08
0.65127
0.946504
-8.61592e-08
0.427767
0.915373
-1.54098e-07
0.211977
0.893251
-1.74302e-07
0.881853
-1.0851e-07
0.369198
1.64531
-0.199917
0.691204
1.58678
-0.1751
0.94738
1.48641
-0.138551
1.14024
1.36483
-0.101768
1.2825
1.23867
-0.0706232
1.38878
1.11835
-0.0465186
1.47174
1.00904
-0.0286323
1.54101
0.912533
-0.0155051
1.60364
0.828828
-0.00581554
1.66474
0.7572
0.00133322
1.72848
0.696988
0.0063522
1.79815
0.647621
0.00863862
1.87699
0.609023
0.00661678
1.96796
0.581257
-0.00225196
2.07537
0.565577
-0.0205927
2.19857
0.56118
-0.0537345
2.32549
0.561182
-0.104796
2.4351
0.552943
-0.162279
2.51588
0.529977
-0.19004
2.56546
0.494398
-0.15645
2.58282
0.448075
-0.0946306
2.57598
0.396928
-0.0515615
2.55482
0.347388
-0.0280431
2.52642
0.303122
-0.0152619
2.49515
0.265624
-0.00825191
2.46336
0.235058
-0.00443206
2.4321
0.210885
-0.00237186
2.40169
0.192268
-0.0012678
2.37205
0.178292
-0.000678577
2.343
0.168086
-0.000363428
2.31431
0.160877
-0.000195945
2.28578
0.156022
-0.00010628
2.25725
0.153007
-5.71315e-05
2.22855
0.151433
-3.02656e-05
2.19957
0.150997
-1.64139e-05
2.17018
0.151461
-9.26453e-06
2.14028
0.152616
-4.15268e-06
2.10979
0.154259
-1.43821e-06
2.07864
0.156178
-1.43871e-06
2.04685
0.158154
-1.92328e-06
2.01446
0.159963
-1.55606e-06
1.98158
0.161392
-7.55913e-07
1.94835
0.162254
-8.44049e-07
1.91496
0.162391
-1.67894e-06
1.88163
0.161692
-1.65042e-06
1.84858
0.160084
-5.74048e-07
1.81604
0.157534
3.14442e-07
1.78424
0.15405
3.30996e-07
1.75339
0.149673
-3.32599e-07
1.72368
0.144478
-9.81994e-07
1.69529
0.138564
-9.10175e-07
1.66835
0.132054
-3.00986e-07
1.64297
0.125081
5.65915e-08
1.61921
0.117791
5.67352e-08
1.5971
0.110332
8.45657e-08
1.57665
0.102849
3.73957e-08
1.55783
0.095482
-2.3061e-07
1.54056
0.0883622
-3.80043e-07
1.52478
0.0816109
-2.9571e-07
1.51035
0.0753363
-2.39546e-07
1.49715
0.0696328
-1.23951e-07
1.48502
0.0645779
2.57822e-07
1.47379
0.0602282
5.6591e-07
1.46329
0.0566159
4.3229e-07
1.45333
0.0537454
1.13931e-07
1.44374
0.0515897
-6.06651e-08
1.43435
0.0500891
-2.37344e-07
1.42504
0.0491538
-5.29673e-07
1.4157
0.0486717
-6.135e-07
1.40627
0.0485196
-2.37474e-07
1.39671
0.0485744
3.14791e-07
1.38703
0.0487258
5.45285e-07
1.37723
0.0488852
2.77108e-07
1.36737
0.0489917
-2.27993e-07
1.35747
0.0490104
-5.50001e-07
1.34757
0.0489271
-5.06569e-07
1.33769
0.0487385
-3.02125e-07
1.32786
0.0484445
-2.05571e-07
1.3181
0.0480415
-1.57871e-07
1.30841
0.0475179
7.02876e-08
1.29884
0.0468525
3.92159e-07
1.2894
0.046016
4.25018e-07
1.28013
0.0449763
6.64922e-08
1.2711
0.0437037
-2.80957e-07
1.26235
0.0421748
-2.40032e-07
1.25396
0.0403746
3.36677e-08
1.24598
0.0382971
1.04576e-07
1.23848
0.0359444
-1.37577e-07
1.2315
0.0333246
-3.82583e-07
1.2251
0.0304483
-3.58727e-07
1.21933
0.0273252
-1.43219e-07
1.21423
0.0239613
3.12948e-08
1.20983
0.0203559
9.24238e-08
1.20618
0.0165001
1.40786e-07
1.20331
0.012374
2.53697e-07
1.20127
0.00794631
3.99463e-07
1.20011
0.00317279
5.11954e-07
1.19989
-0.00200481
5.49129e-07
1.20069
-0.00766008
4.74894e-07
1.2026
-0.0138834
2.67791e-07
1.20574
-0.0207834
-1.42827e-08
1.21023
-0.0284889
-2.28996e-07
1.21624
-0.0371507
-2.64966e-07
1.22398
-0.0469441
-1.5411e-07
1.23368
-0.0580713
-3.47063e-08
1.24564
-0.0707616
-5.13774e-09
1.26021
-0.0852713
-4.31628e-08
1.27784
-0.10188
-6.93872e-08
1.29903
-0.120878
-5.21823e-08
1.32444
-0.142555
-2.56414e-08
1.35482
-0.167159
-2.58615e-08
1.39108
-0.194847
-4.83433e-08
1.43427
-0.225589
-7.55617e-08
1.48554
-0.259021
-1.17455e-07
1.54601
-0.294215
-1.95847e-07
1.61648
-0.329346
-2.91141e-07
1.6968
-0.3613
-3.31745e-07
1.78494
-0.385416
-2.58363e-07
1.87579
-0.395975
-9.6752e-08
1.96092
-0.388602
4.94192e-08
2.03142
-0.365564
8.88676e-08
2.08413
-0.340224
2.4902e-08
2.12293
-0.32938
-5.53091e-08
2.15663
-0.347009
-7.20784e-08
2.19793
-0.404071
-3.02525e-08
2.26517
-0.510894
-4.94128e-09
2.38726
-0.678451
-5.4144e-08
2.61558
-0.919533
-1.48238e-07
3.04911
-1.24386
-1.87407e-07
3.80007
-1.57603
-8.98981e-08
3.80445
-0.51155
1.2616e-07
3.58988
0.201398
2.75562e-07
3.49962
0.244896
2.71401e-07
3.32967
0.470856
1.27809e-07
3.17449
0.54108
-7.36454e-08
3.01045
0.599483
-2.30767e-07
2.93462
0.527204
-2.8575e-07
2.87943
0.551328
-2.54179e-07
2.77833
0.6908
-1.86777e-07
2.62107
0.871158
-1.27717e-07
2.36565
1.11064
-9.00118e-08
2.0383
1.29784
-6.135e-08
1.69794
1.37132
-3.00715e-08
1.38297
1.35525
-1.60708e-09
1.10172
1.29956
6.10089e-09
0.849867
1.23493
-1.89775e-08
0.620138
1.17623
-6.80475e-08
0.405645
1.12987
-1.12643e-07
0.200578
1.09832
-1.18999e-07
1.08243
-5.70453e-08
0.310667
1.67481
-0.120525
0.590835
1.62881
-0.107428
0.825797
1.54745
-0.0872604
1.01408
1.44496
-0.0657721
1.16218
1.33413
-0.0464079
1.27947
1.22413
-0.0304279
1.37523
1.12053
-0.017799
1.45731
1.02616
-0.00799038
1.53202
0.942204
-0.000463852
1.60453
0.869109
0.00510563
1.67911
0.807004
0.00840266
1.75955
0.756071
0.00816596
1.84923
0.716677
0.00213891
1.95228
0.689747
-0.0121805
2.07097
0.675802
-0.0389187
2.19858
0.670102
-0.0828525
2.31725
0.660656
-0.139796
2.41214
0.637359
-0.183622
2.4803
0.600687
-0.175272
2.51914
0.552248
-0.118742
2.53168
0.495685
-0.0673528
2.52644
0.437916
-0.0375708
2.51055
0.383928
-0.0210676
2.48892
0.336413
-0.0117451
2.46458
0.296434
-0.00648337
2.43919
0.264
-0.00355097
2.41349
0.238519
-0.00193396
2.38771
0.219094
-0.00104996
2.36184
0.204727
-0.000569384
2.33579
0.194446
-0.000309269
2.30946
0.187379
-0.000168688
2.28277
0.182803
-9.17836e-05
2.25567
0.180152
-4.94384e-05
2.22812
0.179013
-2.67261e-05
2.20003
0.179092
-1.492e-05
2.17134
0.180164
-8.0757e-06
2.14193
0.182032
-3.97571e-06
2.11171
0.184481
-2.32699e-06
2.08062
0.187267
-1.81829e-06
2.04866
0.190114
-1.4001e-06
2.01589
0.192733
-8.261e-07
1.98244
0.194846
-6.46683e-07
1.94849
0.196206
-1.10908e-06
1.91426
0.196617
-1.27668e-06
1.88002
0.195937
-6.70153e-07
1.84603
0.194079
6.91298e-08
1.81255
0.19101
2.94989e-07
1.77986
0.186744
-1.49107e-07
1.74819
0.181341
-8.44815e-07
1.71777
0.1749
-1.03368e-06
1.68878
0.167552
-5.98597e-07
1.66138
0.159456
-2.16785e-07
1.63568
0.150784
-1.9385e-07
1.61175
0.141724
-1.91894e-07
1.58962
0.132462
-1.55974e-07
1.56929
0.123182
-2.89956e-07
1.55071
0.114059
-3.96974e-07
1.53381
0.105255
-3.08285e-07
1.5185
0.096921
-2.93378e-07
1.50464
0.0891913
-3.33984e-07
1.49209
0.0821852
-1.12868e-09
1.48067
0.0760022
5.70056e-07
1.47018
0.0707172
7.204e-07
1.46042
0.0663764
3.88394e-07
1.45118
0.0629907
1.06433e-07
1.44224
0.0605275
-2.48492e-08
1.43342
0.0589083
-3.44244e-07
1.42456
0.0580113
-7.47863e-07
1.41555
0.057682
-6.89763e-07
1.40633
0.0577483
-5.17357e-08
1.39686
0.0580393
6.00578e-07
1.38718
0.0584048
6.87664e-07
1.37734
0.0587302
2.21749e-07
1.36739
0.0589434
-2.93406e-07
1.35738
0.0590121
-4.31157e-07
1.34738
0.0589332
-2.60012e-07
1.3374
0.0587186
-1.53734e-07
1.32746
0.0583821
-2.23911e-07
1.31757
0.057928
-1.75552e-07
1.30775
0.0573446
1.64473e-07
1.298
0.0566029
4.6347e-07
1.28836
0.0556607
3.09497e-07
1.27886
0.0544715
-1.58726e-07
1.26957
0.0529924
-3.96856e-07
1.26055
0.05119
-1.86554e-07
1.25188
0.0490447
1.08766e-07
1.24363
0.046551
8.63074e-08
1.23586
0.0437161
-1.79918e-07
1.22862
0.0405559
-3.26832e-07
1.22198
0.0370896
-2.13736e-07
1.21597
0.0333352
-2.80843e-08
1.21063
0.0293054
4.25771e-08
1.20598
0.0250043
3.3262e-08
1.20205
0.0204247
7.43275e-08
1.19888
0.0155461
1.97186e-07
1.19649
0.010334
3.39746e-07
1.19493
0.00473782
4.52475e-07
1.19423
-0.00130951
5.09942e-07
1.19447
-0.00789341
4.61677e-07
1.1957
-0.015119
2.66718e-07
1.19803
-0.0231127
-1.22409e-08
1.20157
-0.0320251
-2.17738e-07
1.20645
-0.0420337
-2.41648e-07
1.21285
-0.0533473
-1.35109e-07
1.22099
-0.0662094
-4.42333e-08
1.23113
-0.080902
-5.2969e-08
1.2436
-0.0977483
-1.18535e-07
1.25884
-0.117113
-1.5162e-07
1.27736
-0.139399
-1.2047e-07
1.29984
-0.165035
-6.2023e-08
1.32713
-0.194457
-2.01399e-08
1.36034
-0.228054
-6.85395e-09
1.40084
-0.266089
-2.14059e-08
1.45035
-0.308529
-7.38219e-08
1.51088
-0.354748
-1.64715e-07
1.58452
-0.402986
-2.51402e-07
1.67268
-0.449457
-2.6389e-07
1.77438
-0.487111
-1.72993e-07
1.88316
-0.504754
-3.62688e-08
1.98396
-0.4894
4.18358e-08
2.05676
-0.438363
5.29599e-09
2.09497
-0.37844
-9.92532e-08
2.1053
-0.339704
-1.68718e-07
2.09957
-0.341279
-1.45216e-07
2.09111
-0.39561
-7.06268e-08
2.09761
-0.517402
-4.01524e-08
2.14618
-0.727018
-1.02573e-07
2.29125
-1.0646
-2.0583e-07
2.71694
-1.62163
-2.38623e-07
4.86456
-2.64085
-1.2123e-07
4.5174
-2.37691
1.56405e-07
3.63338
-0.191711
2.48039e-07
3.72558
1.79673
1.82853e-07
3.39989
1.96118
2.70384e-08
3.23289
1.3618
-1.44675e-07
2.93817
0.972629
-2.43438e-07
2.95874
0.553758
-2.44449e-07
3.0189
0.531549
-1.87313e-07
2.95869
0.777823
-1.22815e-07
2.86056
0.995337
-8.16099e-08
2.55284
1.41836
-6.69197e-08
2.11178
1.7389
-5.67452e-08
1.68188
1.80121
-3.86972e-08
1.32728
1.70985
-1.62709e-08
1.03709
1.58976
-4.92128e-09
0.791168
1.48085
-1.56761e-08
0.573772
1.39363
-4.33029e-08
0.374098
1.32954
-6.74536e-08
0.184692
1.28773
-6.39229e-08
1.26712
-1.03437e-08
0.264669
1.68892
-0.0720331
0.509475
1.65258
-0.0648756
0.723308
1.58679
-0.0534518
0.903252
1.50128
-0.0406503
1.05218
1.40559
-0.028423
1.17587
1.30733
-0.0177005
1.28086
1.21183
-0.00872735
1.37336
1.12245
-0.00145077
1.45892
1.04129
0.0041902
1.54243
0.969647
0.00792859
1.62818
0.908455
0.00871072
1.72016
0.858648
0.00460339
1.8223
0.821128
-0.00696868
1.93834
0.79727
-0.029199
2.06527
0.783981
-0.0671219
2.18913
0.770628
-0.120539
2.29396
0.745112
-0.171574
2.37546
0.705733
-0.183048
2.43186
0.654594
-0.138652
2.46257
0.59345
-0.0826602
2.47391
0.528612
-0.0471569
2.47245
0.465852
-0.0271487
2.46304
0.408784
-0.0155857
2.44894
0.359333
-0.00885009
2.43215
0.318193
-0.00497115
2.4137
0.28521
-0.00276829
2.39406
0.259695
-0.00153134
2.37334
0.240654
-0.000844385
2.35156
0.22697
-0.000464167
2.32872
0.217537
-0.000255197
2.30488
0.211365
-0.000140323
2.28012
0.207643
-7.67072e-05
2.25453
0.205776
-4.16934e-05
2.22819
0.205371
-2.30682e-05
2.20111
0.206189
-1.32882e-05
2.17321
0.208072
-7.281e-06
2.14438
0.210866
-3.74846e-06
2.11449
0.214367
-2.14416e-06
2.08347
0.218295
-1.39845e-06
2.05128
0.222302
-8.42547e-07
2.018
0.226011
-4.93197e-07
1.9838
0.229053
-5.51995e-07
1.9489
0.231109
-6.55995e-07
1.91358
0.231935
-4.3511e-07
1.87816
0.231359
-4.05144e-08
1.84296
0.229285
1.71455e-07
1.80829
0.22568
-1.18314e-07
1.77446
0.220573
-7.84582e-07
1.74175
0.214046
-1.15772e-06
1.71042
0.206229
-9.08508e-07
1.68068
0.19729
-4.98987e-07
1.65271
0.187432
-3.6281e-07
1.62662
0.176877
-3.6764e-07
1.60249
0.165859
-3.45376e-07
1.58034
0.15461
-3.55461e-07
1.56016
0.143359
-3.16943e-07
1.5419
0.132316
-1.76419e-07
1.52548
0.121678
-2.25248e-07
1.51077
0.111626
-4.79962e-07
1.49764
0.102323
-3.53072e-07
1.48591
0.0939157
3.15571e-07
1.47538
0.086528
7.63435e-07
1.46584
0.0802607
5.11101e-07
1.45703
0.0751817
9.33605e-08
1.44871
0.0713136
9.44783e-09
1.44062
0.0686214
-6.74127e-08
1.43252
0.0670048
-4.62467e-07
1.42423
0.0663011
-7.3538e-07
1.41562
0.0662972
-3.40552e-07
1.40662
0.0667525
4.87333e-07
1.39723
0.0674292
9.92317e-07
1.38751
0.0681231
7.90435e-07
1.37755
0.0686871
2.12141e-07
1.36746
0.0690402
-1.59115e-07
1.35731
0.0691619
-1.30884e-07
1.34716
0.0690746
-2.11567e-08
1.33706
0.06882
-1.37666e-07
1.32701
0.068437
-3.09766e-07
1.31699
0.0679441
-1.62267e-07
1.30701
0.0673298
2.4316e-07
1.29706
0.0665529
3.99741e-07
1.28717
0.0655516
6.34045e-08
1.27738
0.0642566
-3.66063e-07
1.26777