/*--------------------------------*- C++ -*----------------------------------*\
| =========                 |                                                 |
| \\      /  F ield         | OpenFOAM: The Open Source CFD Toolbox           |
|  \\    /   O peration     | Version:  2.1.0                                 |
|   \\  /    A nd           | Web:      www.OpenFOAM.org                      |
|    \\/     M anipulation  |                                                 |
\*---------------------------------------------------------------------------*/
FoamFile
{
    version     2.0;
    format      ascii;
    class       volScalarField;
    location    "8030";
    object      pw;
}
// * * * * * * * * * * * * * * * * * * * * * * * * * * * * * * * * * * * * * //

dimensions      [1 -1 -2 0 0 0 0];

internalField   nonuniform List<scalar> 
75000
(
4400.04
4399.35
4398.18
4396.72
4395.11
4393.42
4391.7
4389.95
4388.18
4386.39
4384.57
4382.72
4380.82
4378.87
4376.86
4374.77
4372.58
4370.28
4367.85
4365.29
4362.63
4359.94
4357.24
4354.57
4351.95
4349.38
4346.86
4344.39
4341.95
4339.55
4337.19
4334.86
4332.57
4330.31
4328.08
4325.88
4323.71
4321.57
4319.46
4317.39
4315.34
4313.33
4311.35
4309.4
4307.48
4305.6
4303.75
4301.92
4300.13
4298.37
4296.63
4294.92
4293.24
4291.59
4289.95
4288.34
4286.75
4285.18
4283.62
4282.09
4280.57
4279.06
4277.57
4276.08
4274.62
4273.16
4271.71
4270.27
4268.85
4267.43
4266.02
4264.63
4263.24
4261.86
4260.5
4259.14
4257.79
4256.45
4255.12
4253.8
4252.49
4251.19
4249.9
4248.62
4247.34
4246.08
4244.82
4243.57
4242.33
4241.09
4239.86
4238.63
4237.41
4236.19
4234.98
4233.77
4232.55
4231.34
4230.13
4228.92
4227.7
4226.48
4225.25
4224.01
4222.77
4221.51
4220.23
4218.94
4217.62
4216.28
4214.9
4213.49
4212.05
4210.55
4209
4207.4
4205.73
4204
4202.19
4200.31
4198.36
4196.33
4194.22
4192.03
4189.75
4187.37
4184.88
4182.25
4179.47
4176.56
4173.52
4170.41
4167.26
4164.13
4161.05
4158.04
4155.13
4152.34
4149.69
4147.19
4144.87
4142.75
4140.86
4139.2
4137.79
4136.63
4135.7
4135.02
4134.56
4134.34
4399.36
4398.74
4397.66
4396.29
4394.75
4393.12
4391.44
4389.72
4387.98
4386.21
4384.41
4382.58
4380.69
4378.75
4376.74
4374.65
4372.47
4370.16
4367.72
4365.16
4362.52
4359.83
4357.15
4354.5
4351.89
4349.33
4346.81
4344.34
4341.91
4339.52
4337.16
4334.83
4332.54
4330.28
4328.05
4325.85
4323.68
4321.54
4319.43
4317.36
4315.31
4313.3
4311.32
4309.37
4307.45
4305.57
4303.71
4301.89
4300.1
4298.34
4296.6
4294.9
4293.22
4291.56
4289.93
4288.32
4286.73
4285.16
4283.61
4282.07
4280.55
4279.05
4277.55
4276.07
4274.6
4273.15
4271.7
4270.26
4268.84
4267.42
4266.01
4264.62
4263.23
4261.85
4260.49
4259.13
4257.78
4256.44
4255.11
4253.79
4252.48
4251.18
4249.89
4248.61
4247.34
4246.07
4244.81
4243.56
4242.32
4241.08
4239.85
4238.63
4237.41
4236.19
4234.98
4233.76
4232.55
4231.34
4230.13
4228.92
4227.71
4226.49
4225.26
4224.02
4222.78
4221.52
4220.25
4218.96
4217.65
4216.31
4214.94
4213.54
4212.09
4210.6
4209.06
4207.46
4205.8
4204.07
4202.26
4200.39
4198.43
4196.41
4194.3
4192.12
4189.86
4187.49
4185.01
4182.39
4179.62
4176.68
4173.6
4170.44
4167.25
4164.08
4160.97
4157.94
4155.02
4152.21
4149.53
4147.01
4144.66
4142.53
4140.62
4138.96
4137.55
4136.39
4135.47
4134.79
4134.33
4134.11
4398.2
4397.67
4396.73
4395.49
4394.07
4392.54
4390.94
4389.29
4387.6
4385.88
4384.11
4382.3
4380.44
4378.51
4376.52
4374.43
4372.24
4369.92
4367.48
4364.92
4362.3
4359.64
4356.98
4354.36
4351.77
4349.22
4346.72
4344.26
4341.83
4339.44
4337.09
4334.77
4332.47
4330.21
4327.98
4325.78
4323.62
4321.48
4319.37
4317.29
4315.25
4313.23
4311.25
4309.31
4307.39
4305.51
4303.65
4301.83
4300.04
4298.28
4296.55
4294.85
4293.17
4291.52
4289.89
4288.28
4286.69
4285.12
4283.57
4282.04
4280.52
4279.02
4277.53
4276.05
4274.58
4273.13
4271.68
4270.24
4268.82
4267.4
4266
4264.6
4263.21
4261.83
4260.47
4259.11
4257.76
4256.42
4255.09
4253.78
4252.47
4251.17
4249.88
4248.59
4247.32
4246.06
4244.8
4243.55
4242.31
4241.07
4239.84
4238.62
4237.4
4236.18
4234.97
4233.76
4232.55
4231.35
4230.14
4228.93
4227.72
4226.5
4225.28
4224.05
4222.8
4221.55
4220.29
4219
4217.7
4216.37
4215.01
4213.62
4212.18
4210.71
4209.18
4207.59
4205.93
4204.21
4202.41
4200.54
4198.58
4196.56
4194.47
4192.3
4190.06
4187.72
4185.28
4182.69
4179.92
4176.94
4173.77
4170.5
4167.22
4163.97
4160.81
4157.74
4154.78
4151.94
4149.22
4146.65
4144.25
4142.07
4140.14
4138.47
4137.05
4135.9
4134.99
4134.32
4133.88
4133.66
4396.77
4396.33
4395.51
4394.43
4393.15
4391.74
4390.24
4388.68
4387.06
4385.39
4383.67
4381.89
4380.06
4378.16
4376.17
4374.09
4371.9
4369.57
4367.13
4364.59
4361.99
4359.36
4356.74
4354.15
4351.59
4349.07
4346.58
4344.13
4341.72
4339.34
4336.99
4334.67
4332.38
4330.12
4327.89
4325.69
4323.52
4321.38
4319.27
4317.2
4315.15
4313.14
4311.16
4309.21
4307.29
4305.41
4303.56
4301.74
4299.95
4298.2
4296.47
4294.77
4293.09
4291.44
4289.82
4288.22
4286.63
4285.07
4283.53
4282
4280.48
4278.98
4277.49
4276.01
4274.55
4273.09
4271.65
4270.21
4268.79
4267.37
4265.97
4264.57
4263.18
4261.8
4260.44
4259.08
4257.73
4256.39
4255.07
4253.75
4252.44
4251.14
4249.85
4248.57
4247.3
4246.03
4244.78
4243.53
4242.29
4241.05
4239.83
4238.6
4237.39
4236.17
4234.96
4233.76
4232.55
4231.35
4230.14
4228.94
4227.73
4226.52
4225.3
4224.08
4222.84
4221.6
4220.34
4219.07
4217.77
4216.46
4215.11
4213.74
4212.32
4210.86
4209.35
4207.78
4206.14
4204.43
4202.63
4200.76
4198.81
4196.78
4194.7
4192.55
4190.35
4188.07
4185.69
4183.17
4180.43
4177.4
4174.03
4170.57
4167.14
4163.79
4160.55
4157.43
4154.44
4151.55
4148.76
4146.11
4143.63
4141.38
4139.4
4137.71
4136.3
4135.17
4134.28
4133.63
4133.2
4132.99
4395.19
4394.82
4394.13
4393.18
4392.04
4390.76
4389.37
4387.9
4386.36
4384.76
4383.09
4381.36
4379.56
4377.69
4375.72
4373.64
4371.44
4369.12
4366.68
4364.17
4361.6
4359.02
4356.44
4353.89
4351.36
4348.87
4346.4
4343.97
4341.57
4339.2
4336.86
4334.54
4332.26
4330
4327.77
4325.57
4323.4
4321.26
4319.15
4317.07
4315.02
4313.01
4311.03
4309.08
4307.16
4305.28
4303.43
4301.62
4299.83
4298.08
4296.36
4294.66
4292.99
4291.35
4289.73
4288.13
4286.56
4285
4283.46
4281.93
4280.42
4278.93
4277.44
4275.97
4274.51
4273.05
4271.61
4270.17
4268.75
4267.33
4265.93
4264.53
4263.14
4261.77
4260.4
4259.04
4257.69
4256.36
4255.03
4253.71
4252.4
4251.1
4249.81
4248.53
4247.26
4246
4244.75
4243.5
4242.26
4241.03
4239.8
4238.59
4237.37
4236.16
4234.95
4233.75
4232.55
4231.35
4230.15
4228.95
4227.75
4226.54
4225.33
4224.11
4222.89
4221.66
4220.41
4219.15
4217.87
4216.57
4215.25
4213.9
4212.5
4211.07
4209.58
4208.04
4206.42
4204.72
4202.94
4201.06
4199.1
4197.07
4194.99
4192.86
4190.71
4188.51
4186.25
4183.86
4181.24
4178.19
4174.39
4170.59
4167
4163.5
4160.17
4156.99
4153.98
4151.05
4148.17
4145.39
4142.77
4140.41
4138.37
4136.67
4135.29
4134.18
4133.33
4132.71
4132.31
4132.11
4393.55
4393.23
4392.64
4391.82
4390.8
4389.64
4388.36
4386.99
4385.53
4384
4382.39
4380.71
4378.95
4377.11
4375.15
4373.08
4370.88
4368.57
4366.15
4363.67
4361.15
4358.62
4356.1
4353.59
4351.1
4348.63
4346.19
4343.78
4341.39
4339.03
4336.69
4334.39
4332.1
4329.85
4327.62
4325.42
4323.25
4321.11
4318.99
4316.91
4314.86
4312.85
4310.87
4308.92
4307
4305.12
4303.28
4301.46
4299.68
4297.94
4296.22
4294.53
4292.87
4291.23
4289.62
4288.03
4286.46
4284.91
4283.38
4281.86
4280.35
4278.86
4277.38
4275.91
4274.45
4273
4271.56
4270.12
4268.7
4267.28
4265.88
4264.48
4263.09
4261.72
4260.35
4258.99
4257.64
4256.31
4254.98
4253.66
4252.35
4251.06
4249.77
4248.49
4247.22
4245.96
4244.71
4243.46
4242.23
4241
4239.78
4238.56
4237.35
4236.14
4234.94
4233.74
4232.55
4231.35
4230.16
4228.96
4227.77
4226.57
4225.37
4224.16
4222.95
4221.73
4220.5
4219.25
4217.99
4216.72
4215.42
4214.09
4212.73
4211.33
4209.88
4208.37
4206.78
4205.11
4203.34
4201.45
4199.47
4197.41
4195.32
4193.21
4191.11
4189.02
4186.92
4184.78
4182.49
4179.77
4174.9
4170.39
4166.75
4163.03
4159.63
4156.4
4153.46
4150.5
4147.48
4144.52
4141.66
4139.11
4137
4135.31
4133.99
4132.95
4132.16
4131.58
4131.21
4131.03
4391.87
4391.61
4391.1
4390.37
4389.47
4388.42
4387.24
4385.96
4384.59
4383.13
4381.59
4379.96
4378.24
4376.42
4374.48
4372.41
4370.22
4367.93
4365.55
4363.12
4360.66
4358.19
4355.71
4353.25
4350.8
4348.37
4345.95
4343.56
4341.19
4338.84
4336.51
4334.2
4331.92
4329.67
4327.44
4325.24
4323.07
4320.92
4318.81
4316.72
4314.67
4312.65
4310.67
4308.72
4306.81
4304.93
4303.09
4301.28
4299.5
4297.76
4296.05
4294.37
4292.72
4291.09
4289.49
4287.91
4286.35
4284.81
4283.28
4281.77
4280.27
4278.79
4277.31
4275.85
4274.39
4272.94
4271.5
4270.07
4268.64
4267.23
4265.82
4264.42
4263.04
4261.66
4260.29
4258.93
4257.59
4256.25
4254.92
4253.6
4252.3
4251
4249.71
4248.44
4247.17
4245.91
4244.66
4243.42
4242.19
4240.96
4239.74
4238.53
4237.33
4236.12
4234.93
4233.73
4232.54
4231.35
4230.17
4228.98
4227.79
4226.6
4225.41
4224.22
4223.02
4221.81
4220.59
4219.37
4218.13
4216.88
4215.61
4214.32
4213
4211.64
4210.23
4208.77
4207.23
4205.6
4203.84
4201.94
4199.91
4197.79
4195.66
4193.55
4191.51
4189.54
4187.65
4185.84
4184.11
4182.41
4177.28
4170.58
4164.96
4161.07
4158.27
4155.42
4152.9
4149.97
4146.7
4143.53
4140.24
4137.37
4135.19
4133.6
4132.4
4131.47
4130.76
4130.26
4129.92
4129.76
4390.18
4389.95
4389.51
4388.87
4388.06
4387.11
4386.03
4384.84
4383.55
4382.16
4380.68
4379.1
4377.42
4375.62
4373.69
4371.64
4369.48
4367.22
4364.9
4362.53
4360.13
4357.72
4355.3
4352.89
4350.48
4348.08
4345.7
4343.32
4340.96
4338.62
4336.3
4333.99
4331.72
4329.46
4327.23
4325.03
4322.85
4320.71
4318.59
4316.5
4314.45
4312.42
4310.44
4308.49
4306.58
4304.7
4302.86
4301.06
4299.29
4297.56
4295.85
4294.18
4292.54
4290.93
4289.33
4287.77
4286.22
4284.68
4283.17
4281.67
4280.18
4278.7
4277.23
4275.77
4274.32
4272.87
4271.43
4270
4268.58
4267.16
4265.75
4264.35
4262.97
4261.59
4260.22
4258.86
4257.52
4256.18
4254.85
4253.54
4252.23
4250.94
4249.65
4248.37
4247.11
4245.85
4244.61
4243.37
4242.14
4240.92
4239.7
4238.5
4237.3
4236.1
4234.91
4233.72
4232.54
4231.35
4230.17
4228.99
4227.82
4226.64
4225.46
4224.27
4223.09
4221.9
4220.7
4219.5
4218.29
4217.07
4215.83
4214.57
4213.3
4211.99
4210.65
4209.25
4207.78
4206.21
4204.49
4202.57
4200.43
4198.19
4195.97
4193.84
4191.83
4189.97
4188.3
4186.83
4185.57
4184.14
4178.52
4169.88
4163.2
4158.67
4155.09
4152.01
4149.31
4146.47
4144.52
4141.63
4138.27
4134.81
4132.81
4131.51
4130.53
4129.76
4129.18
4128.75
4128.47
4128.33
4388.48
4388.28
4387.89
4387.33
4386.6
4385.73
4384.74
4383.63
4382.42
4381.1
4379.67
4378.14
4376.49
4374.71
4372.81
4370.79
4368.67
4366.47
4364.21
4361.91
4359.58
4357.24
4354.88
4352.52
4350.15
4347.79
4345.42
4343.06
4340.72
4338.38
4336.06
4333.76
4331.49
4329.23
4327
4324.8
4322.62
4320.46
4318.34
4316.25
4314.19
4312.16
4310.17
4308.22
4306.31
4304.43
4302.6
4300.8
4299.04
4297.32
4295.63
4293.97
4292.34
4290.74
4289.16
4287.6
4286.07
4284.55
4283.04
4281.55
4280.07
4278.6
4277.14
4275.69
4274.24
4272.8
4271.36
4269.93
4268.5
4267.08
4265.68
4264.28
4262.89
4261.51
4260.14
4258.78
4257.44
4256.1
4254.78
4253.46
4252.15
4250.86
4249.57
4248.3
4247.04
4245.78
4244.54
4243.31
4242.08
4240.87
4239.66
4238.46
4237.26
4236.07
4234.88
4233.7
4232.53
4231.35
4230.18
4229.01
4227.84
4226.67
4225.5
4224.33
4223.16
4221.99
4220.82
4219.64
4218.45
4217.26
4216.06
4214.85
4213.63
4212.38
4211.11
4209.8
4208.43
4206.96
4205.33
4203.42
4201.05
4198.56
4196.19
4194
4191.99
4190.23
4188.74
4187.54
4186.64
4185.13
4177.46
4167.21
4159.28
4153.17
4148.43
4144.89
4142.33
4140.43
4139.59
4136.95
4132.81
4130.52
4129.82
4129.1
4128.44
4127.88
4127.43
4127.09
4126.87
4126.76
4386.77
4386.59
4386.25
4385.74
4385.09
4384.3
4383.38
4382.35
4381.2
4379.95
4378.58
4377.08
4375.46
4373.71
4371.84
4369.87
4367.81
4365.68
4363.5
4361.28
4359.03
4356.76
4354.46
4352.15
4349.82
4347.48
4345.14
4342.8
4340.46
4338.13
4335.81
4333.51
4331.23
4328.98
4326.74
4324.53
4322.35
4320.19
4318.06
4315.96
4313.89
4311.86
4309.87
4307.91
4306
4304.13
4302.3
4300.51
4298.76
4297.04
4295.37
4293.72
4292.11
4290.52
4288.96
4287.42
4285.9
4284.39
4282.91
4281.43
4279.96
4278.5
4277.05
4275.6
4274.15
4272.71
4271.28
4269.85
4268.42
4267
4265.59
4264.19
4262.8
4261.42
4260.05
4258.69
4257.35
4256.01
4254.69
4253.37
4252.07
4250.77
4249.49
4248.22
4246.96
4245.71
4244.47
4243.24
4242.02
4240.81
4239.6
4238.41
4237.22
4236.04
4234.86
4233.68
4232.51
4231.35
4230.18
4229.02
4227.86
4226.71
4225.55
4224.4
4223.24
4222.09
4220.94
4219.78
4218.63
4217.47
4216.31
4215.15
4213.98
4212.81
4211.62
4210.41
4209.17
4207.88
4206.47
4204.74
4201.93
4198.93
4196.24
4193.96
4191.9
4190.23
4188.89
4187.9
4187.25
4182.52
4172.17
4162.22
4153.55
4146.28
4140.58
4136.79
4134.68
4133.33
4132.02
4129.43
4126.49
4127.05
4126.96
4126.64
4126.25
4125.89
4125.57
4125.33
4125.16
4125.07
4385.03
4384.88
4384.57
4384.12
4383.53
4382.8
4381.96
4380.99
4379.91
4378.71
4377.38
4375.93
4374.34
4372.63
4370.82
4368.91
4366.93
4364.89
4362.8
4360.66
4358.49
4356.28
4354.05
4351.78
4349.49
4347.18
4344.86
4342.53
4340.19
4337.86
4335.54
4333.24
4330.96
4328.7
4326.46
4324.25
4322.06
4319.89
4317.75
4315.64
4313.56
4311.52
4309.52
4307.57
4305.65
4303.78
4301.96
4300.18
4298.44
4296.74
4295.07
4293.45
4291.85
4290.28
4288.74
4287.22
4285.71
4284.23
4282.75
4281.29
4279.84
4278.39
4276.95
4275.51
4274.07
4272.63
4271.19
4269.76
4268.33
4266.91
4265.49
4264.09
4262.7
4261.32
4259.95
4258.59
4257.25
4255.91
4254.59
4253.27
4251.97
4250.68
4249.39
4248.12
4246.87
4245.62
4244.38
4243.16
4241.95
4240.74
4239.54
4238.36
4237.17
4236
4234.83
4233.66
4232.5
4231.34
4230.19
4229.04
4227.89
4226.74
4225.6
4224.46
4223.32
4222.19
4221.05
4219.93
4218.8
4217.68
4216.56
4215.45
4214.34
4213.24
4212.14
4211.05
4209.97
4208.91
4207.89
4206.92
4204.18
4200.3
4196.48
4193.26
4191.03
4189.77
4188.71
4187.9
4187.28
4178.56
4166.46
4155.96
4146.42
4137.83
4130.8
4127.01
4126.27
4126.19
4125.73
4124.17
4123.22
4124.26
4124.32
4124.23
4124.05
4123.84
4123.64
4123.48
4123.37
4123.31
4383.27
4383.13
4382.85
4382.45
4381.91
4381.25
4380.46
4379.56
4378.53
4377.38
4376.09
4374.68
4373.14
4371.49
4369.75
4367.93
4366.05
4364.1
4362.11
4360.06
4357.97
4355.84
4353.66
4351.44
4349.19
4346.9
4344.59
4342.26
4339.92
4337.58
4335.25
4332.95
4330.66
4328.4
4326.16
4323.94
4321.74
4319.56
4317.41
4315.28
4313.19
4311.14
4309.13
4307.17
4305.26
4303.39
4301.58
4299.8
4298.08
4296.39
4294.75
4293.14
4291.56
4290.02
4288.49
4287
4285.51
4284.05
4282.59
4281.15
4279.71
4278.28
4276.84
4275.41
4273.98
4272.54
4271.11
4269.67
4268.23
4266.81
4265.39
4263.98
4262.59
4261.2
4259.84
4258.48
4257.14
4255.8
4254.48
4253.17
4251.86
4250.57
4249.29
4248.02
4246.76
4245.52
4244.29
4243.07
4241.86
4240.67
4239.48
4238.3
4237.12
4235.95
4234.79
4233.63
4232.48
4231.33
4230.18
4229.04
4227.91
4226.77
4225.64
4224.52
4223.4
4222.28
4221.17
4220.07
4218.97
4217.88
4216.81
4215.74
4214.69
4213.67
4212.66
4211.69
4210.75
4209.89
4209.15
4208.61
4205.15
4200.13
4196.35
4192.79
4190.01
4187.77
4185.65
4183.23
4179.35
4169.61
4159.16
4148.75
4138.33
4127.81
4117.8
4114.19
4117.21
4119.42
4120.54
4120.32
4120.55
4121.59
4121.85
4121.91
4121.88
4121.79
4121.68
4121.59
4121.52
4121.48
4381.46
4381.34
4381.09
4380.72
4380.23
4379.62
4378.89
4378.04
4377.06
4375.95
4374.71
4373.35
4371.88
4370.32
4368.68
4366.96
4365.18
4363.34
4361.44
4359.49
4357.49
4355.42
4353.31
4351.14
4348.91
4346.64
4344.33
4341.99
4339.64
4337.29
4334.95
4332.63
4330.34
4328.08
4325.84
4323.61
4321.4
4319.21
4317.04
4314.89
4312.78
4310.72
4308.7
4306.73
4304.82
4302.96
4301.15
4299.38
4297.67
4296.01
4294.38
4292.8
4291.25
4289.73
4288.23
4286.76
4285.3
4283.86
4282.42
4281
4279.58
4278.16
4276.74
4275.32
4273.89
4272.46
4271.02
4269.58
4268.13
4266.7
4265.27
4263.86
4262.46
4261.08
4259.71
4258.36
4257.02
4255.69
4254.36
4253.05
4251.74
4250.45
4249.17
4247.9
4246.64
4245.41
4244.18
4242.97
4241.77
4240.58
4239.4
4238.23
4237.06
4235.9
4234.75
4233.6
4232.45
4231.32
4230.18
4229.05
4227.92
4226.8
4225.68
4224.57
4223.47
4222.37
4221.28
4220.2
4219.13
4218.08
4217.04
4216.02
4215.03
4214.07
4213.15
4212.28
4211.47
4210.75
4210.16
4209.74
4206.65
4200.91
4196
4191.56
4187.57
4183.82
4179.95
4175.5
4169.66
4161.36
4151.82
4141.53
4130.36
4117.28
4106.45
4104.27
4108.97
4113.74
4116.76
4118.01
4118.6
4119.25
4119.55
4119.7
4119.75
4119.75
4119.71
4119.67
4119.63
4119.61
4379.59
4379.48
4379.26
4378.93
4378.48
4377.92
4377.24
4376.43
4375.5
4374.44
4373.26
4371.98
4370.61
4369.15
4367.62
4366.02
4364.35
4362.62
4360.83
4358.97
4357.05
4355.07
4353.01
4350.88
4348.69
4346.42
4344.1
4341.74
4339.36
4336.98
4334.62
4332.29
4330
4327.73
4325.5
4323.27
4321.05
4318.84
4316.64
4314.47
4312.33
4310.25
4308.22
4306.24
4304.33
4302.47
4300.67
4298.92
4297.22
4295.58
4293.98
4292.42
4290.9
4289.41
4287.94
4286.5
4285.07
4283.65
4282.24
4280.84
4279.44
4278.04
4276.64
4275.23
4273.81
4272.38
4270.93
4269.48
4268.03
4266.58
4265.14
4263.72
4262.32
4260.94
4259.57
4258.23
4256.89
4255.56
4254.24
4252.92
4251.61
4250.31
4249.03
4247.76
4246.51
4245.28
4244.06
4242.86
4241.67
4240.49
4239.32
4238.15
4237
4235.85
4234.7
4233.56
4232.43
4231.3
4230.17
4229.05
4227.93
4226.82
4225.72
4224.62
4223.53
4222.45
4221.38
4220.32
4219.28
4218.25
4217.25
4216.27
4215.33
4214.44
4213.59
4212.8
4212.09
4211.48
4210.96
4210.52
4207.13
4200.87
4195.16
4189.88
4184.88
4179.97
4174.85
4169.15
4162.44
4154.37
4145.21
4135.2
4124.3
4112.18
4104.51
4103.53
4105.19
4109.79
4113.98
4116.22
4116.75
4117.15
4117.42
4117.59
4117.69
4117.74
4117.75
4117.75
4117.74
4117.73
4377.65
4377.55
4377.36
4377.05
4376.64
4376.12
4375.48
4374.72
4373.85
4372.86
4371.77
4370.6
4369.34
4368
4366.59
4365.11
4363.56
4361.94
4360.26
4358.51
4356.68
4354.78
4352.78
4350.7
4348.53
4346.26
4343.92
4341.52
4339.09
4336.66
4334.26
4331.91
4329.62
4327.37
4325.14
4322.92
4320.69
4318.45
4316.22
4314
4311.83
4309.72
4307.68
4305.7
4303.78
4301.92
4300.13
4298.4
4296.72
4295.1
4293.54
4292.01
4290.53
4289.07
4287.64
4286.23
4284.83
4283.44
4282.06
4280.68
4279.31
4277.93
4276.55
4275.15
4273.74
4272.31
4270.86
4269.39
4267.92
4266.44
4264.99
4263.55
4262.15
4260.78
4259.42
4258.08
4256.75
4255.43
4254.1
4252.78
4251.47
4250.17
4248.88
4247.61
4246.37
4245.14
4243.93
4242.74
4241.56
4240.39
4239.23
4238.07
4236.93
4235.79
4234.65
4233.52
4232.39
4231.27
4230.16
4229.04
4227.94
4226.84
4225.75
4224.66
4223.59
4222.52
4221.47
4220.43
4219.41
4218.4
4217.43
4216.49
4215.6
4214.75
4213.96
4213.25
4212.63
4212.1
4211.65
4211.09
4207.18
4200.27
4193.91
4187.92
4182.12
4176.33
4170.31
4163.82
4156.58
4148.45
4139.47
4129.75
4119.46
4109.01
4103.31
4102.75
4102.51
4106.24
4111.56
4114.47
4114.91
4115.15
4115.37
4115.55
4115.68
4115.76
4115.8
4115.83
4115.84
4115.84
4375.62
4375.53
4375.35
4375.07
4374.69
4374.21
4373.62
4372.93
4372.13
4371.25
4370.28
4369.22
4368.09
4366.88
4365.6
4364.25
4362.83
4361.33
4359.76
4358.12
4356.39
4354.57
4352.64
4350.61
4348.45
4346.18
4343.79
4341.32
4338.81
4336.31
4333.85
4331.48
4329.2
4326.97
4324.78
4322.58
4320.34
4318.07
4315.77
4313.49
4311.27
4309.13
4307.07
4305.09
4303.17
4301.32
4299.53
4297.82
4296.17
4294.58
4293.05
4291.56
4290.12
4288.7
4287.31
4285.94
4284.58
4283.22
4281.87
4280.53
4279.18
4277.82
4276.46
4275.09
4273.69
4272.26
4270.8
4269.31
4267.8
4266.3
4264.81
4263.36
4261.96
4260.59
4259.26
4257.93
4256.61
4255.29
4253.96
4252.64
4251.31
4250
4248.71
4247.44
4246.2
4244.98
4243.78
4242.6
4241.43
4240.28
4239.13
4237.99
4236.85
4235.72
4234.59
4233.47
4232.36
4231.24
4230.14
4229.03
4227.94
4226.85
4225.77
4224.7
4223.63
4222.58
4221.54
4220.52
4219.51
4218.53
4217.58
4216.67
4215.81
4215
4214.27
4213.62
4213.06
4212.62
4212.27
4211.42
4206.52
4199.1
4192.29
4185.76
4179.36
4172.91
4166.26
4159.22
4151.63
4143.38
4134.45
4124.88
4114.78
4105.53
4101.97
4101.97
4101.8
4104.44
4109.38
4112
4112.95
4113.16
4113.38
4113.57
4113.71
4113.81
4113.88
4113.92
4113.94
4113.95
4373.46
4373.38
4373.21
4372.96
4372.62
4372.19
4371.67
4371.07
4370.39
4369.63
4368.79
4367.87
4366.88
4365.81
4364.66
4363.45
4362.15
4360.79
4359.34
4357.81
4356.19
4354.46
4352.62
4350.64
4348.5
4346.2
4343.74
4341.16
4338.52
4335.91
4333.37
4330.97
4328.71
4326.55
4324.43
4322.27
4320.04
4317.7
4315.3
4312.92
4310.63
4308.46
4306.39
4304.41
4302.5
4300.65
4298.87
4297.17
4295.55
4294
4292.51
4291.08
4289.68
4288.32
4286.97
4285.64
4284.32
4283
4281.68
4280.37
4279.05
4277.73
4276.39
4275.05
4273.67
4272.25
4270.77
4269.24
4267.69
4266.13
4264.6
4263.13
4261.73
4260.38
4259.07
4257.78
4256.47
4255.16
4253.83
4252.49
4251.15
4249.82
4248.51
4247.24
4246.01
4244.8
4243.62
4242.45
4241.3
4240.16
4239.02
4237.89
4236.77
4235.65
4234.53
4233.42
4232.31
4231.21
4230.11
4229.02
4227.93
4226.85
4225.78
4224.72
4223.67
4222.63
4221.6
4220.59
4219.59
4218.62
4217.69
4216.8
4215.96
4215.19
4214.49
4213.88
4213.38
4213.01
4212.76
4210.34
4204.25
4197.34
4190.38
4183.49
4176.63
4169.7
4162.59
4155.17
4147.33
4138.99
4130.09
4120.52
4110
4102.48
4101.29
4101.34
4101.3
4102.88
4107.02
4109.67
4110.85
4111.16
4111.42
4111.63
4111.79
4111.9
4111.98
4112.03
4112.06
4112.07
4371.15
4371.07
4370.92
4370.7
4370.42
4370.07
4369.66
4369.18
4368.64
4368.03
4367.34
4366.57
4365.72
4364.8
4363.79
4362.71
4361.56
4360.32
4359
4357.59
4356.09
4354.47
4352.73
4350.82
4348.73
4346.37
4343.82
4341.05
4338.2
4335.43
4332.73
4330.32
4328.13
4326.09
4324.1
4322.05
4319.83
4317.39
4314.83
4312.25
4309.87
4307.68
4305.63
4303.67
4301.76
4299.91
4298.13
4296.44
4294.85
4293.35
4291.92
4290.55
4289.21
4287.91
4286.62
4285.33
4284.06
4282.78
4281.49
4280.21
4278.92
4277.64
4276.34
4275.03
4273.69
4272.29
4270.8
4269.21
4267.57
4265.93
4264.33
4262.83
4261.44
4260.14
4258.88
4257.63
4256.34
4255.04
4253.7
4252.35
4250.97
4249.61
4248.28
4247.01
4245.78
4244.6
4243.43
4242.29
4241.16
4240.03
4238.91
4237.79
4236.68
4235.57
4234.47
4233.37
4232.27
4231.17
4230.08
4228.99
4227.92
4226.85
4225.79
4224.74
4223.69
4222.66
4221.64
4220.64
4219.65
4218.69
4217.76
4216.88
4216.05
4215.29
4214.62
4214.05
4213.58
4213.25
4213.03
4209.67
4202.79
4195.63
4188.41
4181.19
4173.97
4166.67
4159.22
4151.54
4143.54
4135.17
4126.38
4117.13
4107.29
4101.38
4100.77
4100.8
4100.82
4102.13
4105.53
4107.82
4108.79
4109.21
4109.51
4109.74
4109.9
4110.02
4110.11
4110.16
4110.2
4110.21
4368.67
4368.6
4368.48
4368.31
4368.11
4367.88
4367.61
4367.29
4366.91
4366.46
4365.93
4365.32
4364.63
4363.85
4362.99
4362.05
4361.03
4359.93
4358.75
4357.47
4356.1
4354.61
4352.99
4351.21
4349.21
4346.75
4344.11
4341.02
4337.8
4334.89
4331.82
4329.43
4327.4
4325.57
4323.83
4322.01
4319.84
4317.21
4314.36
4311.4
4308.92
4306.75
4304.78
4302.87
4300.97
4299.09
4297.29
4295.62
4294.08
4292.64
4291.28
4289.98
4288.72
4287.48
4286.25
4285.02
4283.79
4282.55
4281.31
4280.06
4278.8
4277.55
4276.3
4275.05
4273.77
4272.42
4270.92
4269.22
4267.46
4265.69
4263.96
4262.42
4261.07
4259.85
4258.69
4257.51
4256.24
4254.94
4253.61
4252.22
4250.8
4249.35
4248
4246.73
4245.52
4244.37
4243.24
4242.12
4241.01
4239.9
4238.79
4237.69
4236.59
4235.49
4234.4
4233.31
4232.22
4231.13
4230.04
4228.96
4227.89
4226.83
4225.78
4224.74
4223.71
4222.69
4221.67
4220.67
4219.68
4218.71
4217.78
4216.9
4216.07
4215.31
4214.65
4214.09
4213.66
4213.34
4213.14
4209.23
4201.6
4194
4186.43
4178.9
4171.37
4163.79
4156.1
4148.23
4140.12
4131.75
4123.13
4114.32
4105.5
4100.73
4100.27
4100.28
4100.33
4100.5
4103.52
4106.22
4106.93
4107.37
4107.68
4107.91
4108.07
4108.19
4108.27
4108.32
4108.35
4108.36
4366.01
4365.97
4365.89
4365.81
4365.72
4365.63
4365.53
4365.4
4365.21
4364.95
4364.59
4364.15
4363.61
4362.98
4362.27
4361.47
4360.59
4359.63
4358.58
4357.45
4356.22
4354.88
4353.41
4351.81
4350.14
4348.04
4345.33
4340.75
4336.44
4333.16
4330.22
4328.18
4326.46
4324.98
4323.64
4322.3
4320.54
4317.35
4313.24
4310.03
4307.65
4305.63
4303.86
4302.06
4300.16
4298.19
4296.32
4294.66
4293.19
4291.85
4290.59
4289.38
4288.2
4287.04
4285.89
4284.72
4283.54
4282.34
4281.13
4279.9
4278.68
4277.47
4276.27
4275.1
4273.93
4272.7
4271.24
4269.3
4267.34
4265.42
4263.41
4261.82
4260.56
4259.5
4258.51
4257.46
4256.19
4254.86
4253.56
4252.14
4250.63
4249
4247.64
4246.39
4245.22
4244.11
4243.02
4241.94
4240.85
4239.76
4238.67
4237.59
4236.5
4235.41
4234.33
4233.25
4232.16
4231.08
4230
4228.93
4227.86
4226.81
4225.76
4224.74
4223.72
4222.7
4221.69
4220.68
4219.68
4218.7
4217.76
4216.86
4216.01
4215.25
4214.58
4214.02
4213.6
4213.32
4213.1
4208.7
4200.38
4192.32
4184.42
4176.61
4168.83
4161.03
4153.15
4145.14
4136.96
4128.6
4120.07
4111.54
4103.62
4099.9
4099.68
4099.72
4099.81
4099.96
4102.45
4104.85
4105.3
4105.66
4105.93
4106.14
4106.28
4106.38
4106.45
4106.49
4106.52
4106.53
4363.21
4363.19
4363.18
4363.19
4363.24
4363.33
4363.45
4363.54
4363.57
4363.51
4363.34
4363.06
4362.68
4362.2
4361.62
4360.97
4360.22
4359.4
4358.5
4357.52
4356.46
4355.29
4353.95
4352.66
4351.05
4347.33
4343.15
4338.83
4335.14
4331.78
4328.67
4326.57
4325.3
4324.23
4323.46
4322.74
4320.4
4316.39
4312.12
4308.34
4305.97
4304.27
4302.97
4301.36
4299.41
4297.21
4295.15
4293.52
4292.17
4290.97
4289.83
4288.74
4287.67
4286.61
4285.53
4284.43
4283.3
4282.14
4280.96
4279.75
4278.55
4277.36
4276.21
4275.14
4274.15
4273.22
4272.2
4269.59
4266.48
4264.06
4262.2
4260.87
4259.86
4259.08
4258.4
4257.73
4256.17
4254.56
4253.76
4252.21
4249.97
4248.16
4247.16
4245.97
4244.85
4243.83
4242.81
4241.76
4240.7
4239.63
4238.55
4237.48
4236.41
4235.33
4234.26
4233.19
4232.11
4231.03
4229.95
4228.88
4227.82
4226.77
4225.74
4224.72
4223.72
4222.71
4221.71
4220.69
4219.67
4218.66
4217.69
4216.76
4215.88
4215.08
4214.38
4213.82
4213.4
4213.14
4212.85
4207.83
4198.92
4190.48
4182.31
4174.28
4166.31
4158.35
4150.33
4142.23
4134
4125.6
4117.01
4108.14
4101.05
4098.9
4099.02
4099.11
4099.24
4099.44
4101.59
4103.44
4103.75
4104.03
4104.26
4104.43
4104.54
4104.62
4104.66
4104.69
4104.7
4104.71
4360.28
4360.29
4360.34
4360.46
4360.66
4360.97
4361.35
4361.72
4362
4362.16
4362.18
4362.07
4361.84
4361.5
4361.07
4360.54
4359.94
4359.26
4358.5
4357.66
4356.8
4355.88
4354.72
4351.43
4347.73
4343.28
4339.41
4335.83
4332.64
4329.72
4326.96
4325.23
4323.85
4323.19
4322.82
4322.42
4319.62
4314.84
4310.34
4306.31
4303.23
4302.35
4301.91
4300.68
4298.48
4295.66
4293.45
4292.11
4291.02
4290.01
4289.04
4288.09
4287.14
4286.18
4285.19
4284.16
4283.09
4281.97
4280.8
4279.6
4278.4
4277.21
4276.09
4275.09
4274.32
4273.7
4272.02
4268.85
4265.88
4263.31
4260.96
4259.45
4258.94
4258.58
4258.04
4257.39
4255.84
4253.91
4252.69
4251.39
4249.7
4248.13
4246.54
4245.14
4244.37
4243.56
4242.61
4241.6
4240.56
4239.49
4238.43
4237.37
4236.31
4235.25
4234.19
4233.13
4232.06
4230.98
4229.9
4228.82
4227.76
4226.71
4225.69
4224.69
4223.71
4222.73
4221.74
4220.7
4219.63
4218.58
4217.58
4216.61
4215.68
4214.81
4214.06
4213.46
4213.03
4212.77
4212.42
4206.3
4196.99
4188.38
4180.06
4171.89
4163.79
4155.71
4147.61
4139.45
4131.19
4122.81
4114.22
4105.26
4099.25
4098.2
4098.34
4098.47
4098.63
4098.8
4100.3
4101.98
4102.22
4102.46
4102.65
4102.77
4102.84
4102.88
4102.89
4102.9
4102.89
4102.89
4357.24
4357.28
4357.39
4357.59
4357.95
4358.51
4359.25
4359.98
4360.56
4360.95
4361.15
4361.2
4361.11
4360.9
4360.59
4360.2
4359.74
4359.2
4358.58
4357.83
4357.21
4355.87
4351.91
4346.53
4342.38
4338.64
4335.37
4332.46
4329.86
4327.49
4325.38
4323.77
4322.54
4321.92
4321.75
4321.49
4318.3
4313
4308.1
4303.13
4299.93
4300.66
4300.87
4299.24
4295.49
4292.09
4291.15
4290.5
4289.78
4289.02
4288.23
4287.43
4286.62
4285.78
4284.89
4283.95
4282.92
4281.83
4280.68
4279.47
4278.22
4277
4275.84
4274.82
4274.08
4273.57
4271.54
4268.02
4264.82
4261.91
4259.16
4257.73
4257.76
4257.92
4257.43
4256.25
4254.24
4252.31
4251.29
4250.39
4249.17
4248.07
4246.44
4244.98
4244.25
4243.43
4242.47
4241.49
4240.43
4239.35
4238.3
4237.27
4236.22
4235.17
4234.13
4233.07
4232.01
4230.93
4229.84
4228.75
4227.67
4226.64
4225.63
4224.65
4223.7
4222.76
4221.81
4220.74
4219.59
4218.45
4217.44
4216.43
4215.41
4214.43
4213.59
4212.92
4212.46
4212.2
4209.87
4202.63
4194.36
4185.98
4177.67
4169.44
4161.26
4153.1
4144.94
4136.75
4128.52
4120.22
4111.81
4103.18
4097.99
4097.41
4097.6
4097.79
4098.02
4098.3
4098.95
4100.3
4100.7
4100.95
4101.09
4101.16
4101.18
4101.16
4101.14
4101.11
4101.08
4101.07
4354.13
4354.17
4354.3
4354.54
4355.02
4355.85
4357.17
4358.38
4359.29
4359.91
4360.28
4360.46
4360.49
4360.4
4360.21
4359.94
4359.6
4359.22
4358.78
4357.97
4354.64
4350.55
4345.16
4340.41
4336.62
4333.53
4330.97
4328.77
4326.84
4325.01
4323.3
4321.83
4321.25
4320.05
4320.35
4320.38
4316.33
4310.78
4305.92
4301.26
4298.91
4299.51
4299.88
4297.02
4292.29
4289.28
4289.33
4289.06
4288.6
4288.04
4287.43
4286.79
4286.12
4285.42
4284.66
4283.81
4282.83
4281.77
4280.62
4279.36
4278.03
4276.72
4275.47
4274.26
4273.39
4272.85
4270.64
4266.85
4263.47
4260.36
4257.38
4255.82
4255.94
4255.78
4255.35
4254.04
4252.6
4251.5
4250.67
4249.82
4248.92
4248.3
4247.07
4245.58
4244.66
4243.47
4242.3
4241.4
4240.26
4239.11
4238.16
4237.18
4236.1
4235.09
4234.08
4233.04
4231.97
4230.89
4229.79
4228.66
4227.54
4226.54
4225.54
4224.58
4223.69
4222.81
4221.99
4220.93
4219.48
4218.18
4217.29
4216.27
4215.1
4213.9
4212.95
4212.18
4211.67
4211.39
4207.73
4199.99
4191.82
4183.52
4175.2
4166.93
4158.69
4150.48
4142.29
4134.1
4125.92
4117.76
4109.61
4101.43
4096.9
4096.61
4096.8
4097.07
4097.38
4097.74
4098.2
4098.94
4099.34
4099.54
4099.61
4099.6
4099.54
4099.46
4099.38
4099.31
4099.26
4099.24
4350.94
4350.97
4351.06
4351.26
4351.71
4352.71
4355.17
4357.07
4358.31
4359.12
4359.61
4359.88
4359.99
4359.99
4359.9
4359.74
4359.51
4359.3
4356.33
4352.7
4347.42
4342.67
4337.78
4333.32
4330.16
4327.91
4326.19
4324.83
4323.7
4322.42
4320.98
4319.54
4318.47
4317
4317.26
4316.58
4312.34
4307.86
4303.53
4299.35
4297.32
4297.56
4297.07
4294.16
4290.28
4288.07
4288.01
4287.83
4287.51
4287.11
4286.66
4286.17
4285.67
4285.12
4284.51
4283.79
4282.82
4281.78
4280.68
4279.31
4277.75
4276.37
4275.04
4273.36
4272.16
4271.51
4269.18
4265.29
4261.84
4258.68
4255.66
4254.14
4254.06
4253.53
4253.37
4252.95
4251.98
4251.29
4250.64
4249.75
4248.89
4248.12
4247.43
4246.51
4244.81
4243.02
4241.67
4240.55
4239.4
4238.27
4237.24
4236.21
4235.17
4234.15
4233.14
4232.12
4231.09
4230.03
4228.88