/*--------------------------------*- C++ -*----------------------------------*\
| =========                 |                                                 |
| \\      /  F ield         | OpenFOAM: The Open Source CFD Toolbox           |
|  \\    /   O peration     | Version:  2.1.0                                 |
|   \\  /    A nd           | Web:      www.OpenFOAM.org                      |
|    \\/     M anipulation  |                                                 |
\*---------------------------------------------------------------------------*/
FoamFile
{
    version     2.0;
    format      ascii;
    class       surfaceScalarField;
    location    "16060";
    object      phi_w;
}
// * * * * * * * * * * * * * * * * * * * * * * * * * * * * * * * * * * * * * //

dimensions      [1 -2 -2 0 0 0 0];

internalField   nonuniform List<scalar> 
208750
(
0.572674
0.565627
-0.883503
0.967866
0.506391
-0.677537
1.18779
0.426001
-0.452184
1.29086
0.349514
-0.282653
1.32925
0.285736
-0.172139
1.3367
0.235298
-0.104241
1.33229
0.196108
-0.0633157
1.3258
0.165621
-0.0386687
1.32194
0.141645
-0.0237048
1.32272
0.122502
-0.0144337
1.32882
0.106962
-0.00848368
1.34029
0.094147
-0.00447474
1.3569
0.0834362
-0.00163107
1.37824
0.0743781
0.000483523
1.40399
0.0666573
0.00229048
1.43385
0.0600585
0.00401097
1.4676
0.0544379
0.00578255
1.50505
0.0497046
0.00768435
1.54612
0.045812
0.00973912
1.59079
0.0427526
0.0118889
1.6391
0.0405448
0.013958
1.6913
0.0392337
0.0156473
1.74798
0.0389725
0.0164036
1.80999
0.0400081
0.0151094
1.878
0.0426154
0.00983363
1.95193
0.0467946
-0.00193115
2.03385
0.0527214
-0.0210084
2.12191
0.0598522
-0.0499232
2.20838
0.0662747
-0.088634
2.2816
0.0697073
-0.127159
2.33161
0.0696819
-0.141318
2.35096
0.0668489
-0.111666
2.33953
0.0615031
-0.0623685
2.30888
0.0554813
-0.0287872
2.27007
0.0503334
-0.0125974
2.22897
0.0463641
-0.00553205
2.18801
0.0433939
-0.00248939
2.14797
0.0411786
-0.00115777
2.10901
0.0395146
-0.000557454
2.07104
0.0382461
-0.000276883
2.03394
0.0372468
-0.000140908
1.9976
0.0364149
-7.29769e-05
1.96196
0.0356706
-3.94091e-05
1.92703
0.0349524
-2.12356e-05
1.89283
0.0342112
-1.12793e-05
1.85943
0.0334103
-6.5024e-06
1.8269
0.0325267
-3.79079e-06
1.79536
0.0315461
-2.12457e-06
1.7649
0.0304625
-1.32827e-06
1.73562
0.029279
-8.83492e-07
1.70762
0.0280045
-3.30836e-07
1.68096
0.0266526
-1.08027e-07
1.65572
0.0252415
-5.39549e-08
1.63193
0.0237917
-1.73077e-07
1.6096
0.0223253
-3.38608e-07
1.58874
0.0208665
2.63481e-09
1.5693
0.0194377
2.51667e-07
1.55124
0.0180601
7.37055e-09
1.53449
0.0167545
-1.73595e-07
1.51895
0.0155398
1.56351e-08
1.50452
0.0144316
1.75431e-07
1.49108
0.0134413
-1.20557e-07
1.4785
0.0125773
-5.83472e-07
1.46665
0.0118439
-5.70391e-07
1.45541
0.0112408
-8.92505e-08
1.44465
0.0107625
2.25548e-07
1.43425
0.0103991
2.56305e-07
1.42411
0.0101372
3.75605e-07
1.41416
0.0099597
2.84686e-07
1.40431
0.00984786
-3.58101e-07
1.39452
0.00978401
-7.49274e-07
1.38477
0.00975161
-2.59454e-07
1.37504
0.00973507
3.29151e-07
1.36531
0.00972165
2.86858e-07
1.35561
0.00970264
1.75323e-08
1.34594
0.00967182
-2.3635e-08
1.33632
0.00962423
2.03536e-08
1.32676
0.00955608
-1.05138e-09
1.3173
0.00946419
-7.20238e-08
1.30795
0.00934515
-2.39102e-07
1.29876
0.00919508
-4.50951e-07
1.28975
0.0090099
-5.1277e-07
1.28096
0.00878534
-3.97442e-07
1.27245
0.00851721
-2.86728e-07
1.26425
0.00820192
-3.1518e-07
1.25641
0.00783683
-4.55347e-07
1.24899
0.00742045
-5.58117e-07
1.24204
0.00695217
-4.83919e-07
1.23561
0.00643176
-3.01349e-07
1.22975
0.00585907
-2.277e-07
1.22452
0.00523408
-2.75606e-07
1.21996
0.00455648
-2.09262e-07
1.21614
0.0038246
3.55121e-08
1.2131
0.0030348
2.0472e-07
1.21092
0.0021816
1.50955e-07
1.20966
0.00125777
7.54781e-08
1.20941
0.00025365
1.53858e-07
1.21025
-0.000843563
2.34272e-07
1.2123
-0.00204991
1.5368e-07
1.21568
-0.00338446
8.48349e-08
1.22055
-0.00486975
2.66416e-07
1.22709
-0.0065324
5.59633e-07
1.23549
-0.00840327
5.85767e-07
1.24601
-0.010517
2.47584e-07
1.25892
-0.0129116
-1.42088e-07
1.27454
-0.0156276
-2.59955e-07
1.29325
-0.0187068
-1.08091e-07
1.31544
-0.0221891
8.63374e-08
1.34155
-0.0261084
1.52386e-07
1.37204
-0.030485
8.15671e-08
1.40735
-0.035316
-4.41214e-08
1.44791
-0.0405622
-1.31528e-07
1.49404
-0.0461325
-1.22329e-07
1.54591
-0.0518675
-4.11192e-08
1.60344
-0.0575289
5.07225e-09
1.66625
-0.0628039
-7.01357e-08
1.73359
-0.0673407
-2.2266e-07
1.80442
-0.0708324
-3.08439e-07
1.87758
-0.0731561
-2.34149e-07
1.95212
-0.0745427
-5.14929e-08
2.02782
-0.0756988
1.04958e-07
2.10559
-0.0777739
1.43757e-07
2.18771
-0.082115
6.36064e-08
2.27759
-0.0898792
-9.19999e-08
2.37916
-0.101574
-2.78702e-07
2.49566
-0.116502
-4.44727e-07
2.62773
-0.132069
-5.23837e-07
2.77083
-0.143092
-4.75227e-07
2.91269
-0.141864
-3.30502e-07
3.03344
-0.120748
-1.78539e-07
3.11273
-0.0792891
-9.34224e-08
3.14371
-0.0309735
-8.22838e-08
3.13072
0.0129899
-1.03552e-07
3.08156
0.0491571
-1.21433e-07
3.00447
0.0770934
-1.30119e-07
2.9059
0.0985656
-1.30283e-07
2.78927
0.116627
-1.02465e-07
2.65413
0.135142
-2.14268e-08
2.49775
0.156382
1.01933e-07
2.31778
0.179974
2.06044e-07
2.11428
0.203495
2.20178e-07
1.89081
0.223467
1.25407e-07
1.65364
0.237178
-2.61507e-08
1.40973
0.243906
-1.52677e-07
1.16496
0.244766
-2.04453e-07
0.923201
0.241762
-1.91269e-07
0.686244
0.236957
-1.58657e-07
0.454214
0.232031
-1.41914e-07
0.226056
0.228159
-1.39121e-07
0.226057
-1.13409e-07
0.513439
0.953699
-0.677549
0.887476
0.873289
-0.539341
1.1113
0.7556
-0.374533
1.22708
0.635927
-0.242051
1.27881
0.530737
-0.151279
1.29751
0.444143
-0.0933774
1.3018
0.374739
-0.0575066
1.30183
0.319424
-0.0354778
1.3028
0.275099
-0.0218878
1.30719
0.239185
-0.0133351
1.31601
0.209699
-0.00775898
1.32958
0.185172
-0.0039443
1.34784
0.164541
-0.00120491
1.37052
0.147004
0.000873633
1.39739
0.132016
0.00269479
1.42823
0.119201
0.0044631
1.46286
0.108305
0.00630637
1.50116
0.0991713
0.00829722
1.54306
0.0917242
0.0104464
1.58858
0.085955
0.0126725
1.63779
0.0818908
0.0147726
1.69104
0.079647
0.0164084
1.74902
0.0794884
0.0168954
1.8126
0.0817724
0.0148794
1.88218
0.0867658
0.00813472
1.95786
0.0941204
-0.00574298
2.04098
0.104065
-0.0276057
2.12833
0.115352
-0.0594593
2.21182
0.125215
-0.0989542
2.28157
0.131105
-0.132562
2.32878
0.132165
-0.135736
2.34561
0.127832
-0.0989385
2.33351
0.118707
-0.0539084
2.30374
0.108258
-0.0256904
2.2661
0.0989936
-0.011736
2.226
0.0916216
-0.00532637
2.18579
0.0860068
-0.00244668
2.14631
0.0817956
-0.00114963
2.10775
0.0786347
-0.000554913
2.07004
0.0762246
-0.000275546
2.03311
0.0743237
-0.000140773
1.99685
0.0727402
-7.32204e-05
1.96125
0.0713164
-3.85655e-05
1.92629
0.069928
-2.08797e-05
1.89203
0.0684799
-1.17033e-05
1.85855
0.0669034
-6.55613e-06
1.82592
0.0651507
-3.63501e-06
1.79428
0.0631941
-2.26076e-06
1.76371
0.0610253
-1.45916e-06
1.73434
0.0586501
-6.13433e-07
1.70626
0.0560867
-1.39048e-07
1.67955
0.053365
-1.0873e-08
1.65427
0.0505218
-2.11611e-07
1.63046
0.0475994
-3.69766e-07
1.60815
0.0446444
4.4487e-08
1.58731
0.0417038
2.9917e-07
1.56792
0.0388233
-8.61928e-09
1.54994
0.0360474
-2.65123e-07
1.53327
0.0334185
-1.19172e-07
1.51784
0.030974
7.54744e-08
1.50353
0.0287449
-1.63529e-07
1.49021
0.0267558
-6.9469e-07
1.47776
0.0250238
-8.45936e-07
1.46605
0.0235579
-3.1617e-07
1.45493
0.0223571
3.62807e-07
1.44429
0.0214104
6.49336e-07
1.43399
0.0206976
6.7083e-07
1.42394
0.0201897
4.4739e-07
1.41404
0.0198521
-2.39201e-07
1.40424
0.0196474
-7.99333e-07
1.39449
0.019538
-4.78289e-07
1.38475
0.0194879
2.02302e-07
1.37502
0.019466
3.53825e-07
1.3653
0.0194484
1.44033e-07
1.35558
0.0194176
8.68185e-08
1.34589
0.0193608
1.34566e-07
1.33625
0.019269
1.24217e-07
1.32667
0.0191358
6.13445e-08
1.31718
0.0189554
-1.35869e-07
1.3078
0.0187211
-4.49971e-07
1.29857
0.0184254
-5.9693e-07
1.28952
0.0180596
-4.51018e-07
1.28069
0.0176147
-2.44543e-07
1.27213
0.0170819
-1.99238e-07
1.26388
0.016454
-3.03698e-07
1.25599
0.0157256
-4.28338e-07
1.24852
0.0148938
-4.39443e-07
1.24152
0.0139573
-3.16311e-07
1.23504
0.0129159
-2.19634e-07
1.22913
0.0117703
-2.64732e-07
1.22384
0.0105212
-2.99229e-07
1.21923
0.00916782
-1.54282e-07
1.21535
0.00770698
2.80552e-08
1.21225
0.00613207
2.85509e-08
1.21
0.00443305
-4.4839e-08
1.20866
0.00259571
5.62341e-08
1.20831
0.00060048
2.56708e-07
1.20904
-0.00157809
2.73356e-07
1.21097
-0.00397147
1.33101e-07
1.2142
-0.00661759
1.72347e-07
1.21889
-0.00956164
4.79446e-07
1.22522
-0.0128568
6.96072e-07
1.23338
-0.0165644
5.06539e-07
1.24361
-0.0207538
6.85231e-08
1.2562
-0.0255017
-2.09857e-07
1.27147
-0.0308916
-1.62275e-07
1.28977
-0.0370099
2.85891e-08
1.31152
-0.0439413
1.22533e-07
1.33717
-0.0517599
6.03814e-08
1.3672
-0.0605161
-6.45132e-08
1.4021
-0.070217
-1.3837e-07
1.44234
-0.0808003
-1.02298e-07
1.48831
-0.0920998
1.52559e-08
1.54025
-0.103808
9.60708e-08
1.59817
-0.115444
1.67975e-08
1.66171
-0.126346
-2.13529e-07
1.7301
-0.135727
-4.24432e-07
1.8021
-0.142833
-4.33822e-07
1.87619
-0.147249
-2.25014e-07
1.95096
-0.149316
4.41887e-08
2.02574
-0.150479
1.95916e-07
2.10125
-0.153282
1.70188e-07
2.17994
-0.160807
2.34386e-08
2.26589
-0.175828
-1.57293e-07
2.36423
-0.199914
-3.06941e-07
2.4801
-0.232367
-3.79378e-07
2.61671
-0.26868
-3.49034e-07
2.77205
-0.298433
-2.38229e-07
2.93381
-0.303617
-1.20343e-07
3.0749
-0.261839
-6.70625e-08
3.16105
-0.165435
-8.71169e-08
3.18767
-0.0575949
-1.257e-07
3.16688
0.0337757
-1.27295e-07
3.10949
0.106545
-8.89495e-08
3.02594
0.160651
-4.81668e-08
2.92396
0.200542
-2.7916e-08
2.80779
0.232802
-7.59337e-09
2.67537
0.267561
4.60495e-08
2.52134
0.310413
1.27293e-07
2.3413
0.360017
1.82999e-07
2.13425
0.410538
1.60123e-07
1.90452
0.453196
5.81676e-08
1.66036
0.481336
-6.74727e-08
1.41059
0.493683
-1.51807e-07
1.16196
0.493395
-1.695e-07
0.918396
0.485325
-1.44451e-07
0.681318
0.474037
-1.18157e-07
0.450343
0.463007
-1.11471e-07
0.223954
0.454548
-1.1237e-07
0.450012
-8.82419e-08
0.433029
1.16634
-0.452161
0.769786
1.0898
-0.374505
0.991631
0.970057
-0.273296
1.12189
0.839896
-0.185021
1.19221
0.718595
-0.12022
1.22811
0.613747
-0.0765091
1.24648
0.526267
-0.0482336
1.2575
0.454246
-0.0302749
1.26689
0.395006
-0.0188593
1.2777
0.345992
-0.0114664
1.29148
0.305072
-0.00650831
1.30895
0.270586
-0.00302695
1.33031
0.24127
-0.000480739
1.35553
0.21615
0.00154044
1.38457
0.194572
0.00338167
1.41733
0.176069
0.0052168
1.45373
0.16033
0.00716011
1.49371
0.147173
0.00926836
1.53729
0.13652
0.0115246
1.58451
0.128372
0.0138053
1.63555
0.122782
0.0158633
1.69088
0.119965
0.0172563
1.7513
0.120272
0.0170562
1.81759
0.124071
0.0135335
1.88954
0.131343
0.0041195
1.9678
0.141626
-0.0128625
2.05227
0.154911
-0.0385112
2.13819
0.169014
-0.073578
2.21771
0.180742
-0.112133
2.28263
0.187765
-0.136549
2.32444
0.188685
-0.124698
2.33649
0.182131
-0.0821776
2.32306
0.169986
-0.0436257
2.29447
0.156541
-0.0213735
2.25873
0.144471
-0.0101764
2.22039
0.13466
-0.00480116
2.18158
0.127064
-0.0022748
2.14315
0.121314
-0.00109308
2.10534
0.116983
-0.000535418
2.06814
0.113683
-0.000268331
2.03152
0.111083
-0.000136412
1.99543
0.108905
-7.06012e-05
1.95986
0.106924
-3.75117e-05
1.92484
0.104961
-2.04621e-05
1.89046
0.102878
-1.10967e-05
1.85679
0.100573
-6.06968e-06
1.82397
0.0979777
-3.68201e-06
1.79211
0.0950558
-1.90419e-06
1.76134
0.0917956
-8.52128e-07
1.73178
0.0882088
-3.50046e-07
1.70354
0.0843278
1.19951e-07
1.67671
0.0801992
-4.67298e-09
1.65135
0.0758808
-4.17214e-07
1.62751
0.0714403
-2.27566e-07
1.60521
0.0669493
1.67326e-07
1.58443
0.0624798
-6.50853e-08
1.56515
0.0581028
-6.03094e-07
1.54731
0.0538879
-5.96738e-07
1.53083
0.0498995
-8.15016e-08
1.51561
0.0461939
1.68149e-07
1.50154
0.0428191
-1.99442e-07
1.48848
0.0398133
-7.39028e-07
1.4763
0.0372044
-7.28115e-07
1.46485
0.0350067
-1.21609e-08
1.45399
0.033219
7.39617e-07
1.44357
0.0318242
9.53605e-07
1.43348
0.0307901
6.77297e-07
1.4236
0.030071
9.33469e-08
1.41384
0.0296119
-4.72866e-07
1.40413
0.0293526
-4.99541e-07
1.39444
0.0292323
-5.22596e-08
1.38473
0.0291946
2.45713e-07
1.37501
0.0291923
2.50931e-07
1.36527
0.029189
2.66419e-07
1.35552
0.0291588
2.92036e-07
1.3458
0.0290842
1.9109e-07
1.33611
0.0289546
3.9483e-08
1.32649
0.0287624
-1.55002e-07
1.31694
0.0285
-4.60358e-07
1.30751
0.0281584
-6.84618e-07
1.29821
0.0277258
-5.97858e-07
1.28908
0.0271885
-3.36023e-07
1.28016
0.0265317
-1.81127e-07
1.2715
0.0257415
-1.87807e-07
1.26315
0.0248062
-2.49454e-07
1.25516
0.0237177
-2.74164e-07
1.24759
0.0224717
-2.17555e-07
1.24048
0.0210667
-1.41635e-07
1.23389
0.0195037
-1.78141e-07
1.22788
0.017785
-2.94756e-07
1.22249
0.0159127
-2.88134e-07
1.21777
0.0138869
-1.30984e-07
1.21377
0.0117034
-5.05597e-08
1.21055
0.00935353
-1.22433e-07
1.20816
0.00682335
-1.05613e-07
1.20666
0.00409203
1.298e-07
1.20613
0.00113075
3.29262e-07
1.20665
-0.00209789
2.57865e-07
1.20832
-0.00564032
1.10162e-07
1.21125
-0.00955279
2.15864e-07
1.2156
-0.0139026
5.09359e-07
1.22151
-0.0187691
6.04866e-07
1.22919
-0.024244
3.38206e-07
1.23886
-0.0304318
-3.40015e-08
1.25081
-0.0374501
-1.92623e-07
1.26535
-0.0454273
-1.08187e-07
1.28284
-0.0545002
2.57369e-08
1.3037
-0.0648063
5.93354e-08
1.32842
-0.0764737
-8.57563e-09
1.3575
-0.0896021
-1.02544e-07
1.39152
-0.104236
-1.44968e-07
1.43104
-0.120322
-9.42837e-08
1.4766
-0.137658
7.16864e-09
1.52862
-0.155821
3.17459e-08
1.58727
-0.174093
-1.16762e-07
1.65233
-0.191411
-3.68398e-07
1.72299
-0.206388
-5.16994e-07
1.79768
-0.217522
-4.15052e-07
1.87412
-0.223693
-1.22071e-07
1.9498
-0.224992
1.55584e-07
2.02294
-0.223618
2.52659e-07
2.09373
-0.224069
1.57985e-07
2.16492
-0.232003
-2.79761e-08
2.2418
-0.252711
-1.95733e-07
2.33178
-0.289888
-2.79106e-07
2.44378
-0.34437
-2.55488e-07
2.58696
-0.41185
-1.46742e-07
2.76687
-0.478346
-2.28474e-08
2.97558
-0.51233
3.12702e-08
3.17131
-0.457559
-1.81753e-08
3.26889
-0.263017
-1.1894e-07
3.27904
-0.0677472
-1.76271e-07
3.23965
0.0731626
-1.44345e-07
3.1636
0.182597
-6.15692e-08
3.06583
0.258425
1.53341e-09
2.95622
0.31015
1.7707e-08
2.84255
0.346478
2.22662e-08
2.71822
0.391885
6.05141e-08
2.57095
0.45769
1.28345e-07
2.39182
0.539145
1.71703e-07
2.17691
0.625445
1.41032e-07
1.93266
0.697443
4.03625e-08
1.67271
0.741289
-7.62775e-08
1.4103
0.756093
-1.51489e-07
1.15389
0.749807
-1.66976e-07
0.907108
0.732106
-1.46878e-07
0.670288
0.710859
-1.26417e-07
0.441883
0.691412
-1.19979e-07
0.219419
0.677013
-1.15407e-07
0.669432
-8.38909e-08
0.356484
1.26193
-0.282545
0.650048
1.19803
-0.241951
0.86147
1.09264
-0.184955
1.00059
0.97118
-0.131231
1.08737
0.8515
-0.0888949
1.14063
0.742758
-0.0585688
1.17446
0.648047
-0.037961
1.19826
0.567202
-0.0242985
1.21787
0.498673
-0.0152572
1.23678
0.440551
-0.00916897
1.25699
0.391042
-0.00492768
1.27963
0.348638
-0.00185294
1.30519
0.312092
0.000460852
1.33395
0.280477
0.0024309
1.36607
0.253124
0.00429902
1.4016
0.229564
0.00621673
1.44057
0.209494
0.00827533
1.48306
0.19275
0.0105029
1.52914
0.179284
0.0128391
1.57892
0.169121
0.0151008
1.63273
0.162403
0.0169711
1.69119
0.159459
0.0178086
1.7551
0.160702
0.0163279
1.82486
0.166361
0.0103587
1.89982
0.175827
-0.00268323
1.98109
0.189244
-0.023426
2.06637
0.20535
-0.0532924
2.14992
0.221127
-0.0905475
2.22473
0.233447
-0.124674
2.28356
0.240218
-0.134973
2.31789
0.239283
-0.107608
2.32434
0.229734
-0.0646173
2.30962
0.215162
-0.0338915
2.2824
0.19982
-0.0170227
2.24892
0.186094
-0.00838867
2.21279
0.174827
-0.00409967
2.17583
0.166017
-0.00200571
2.13882
0.159311
-0.000989686
2.10203
0.154262
-0.000493955
2.06554
0.150428
-0.000249946
2.02935
0.14741
-0.000128363
1.99345
0.144866
-6.71637e-05
1.9579
0.142511
-3.58583e-05
1.92276
0.140114
-1.93102e-05
1.88815
0.137498
-1.0359e-05
1.8542
0.134532
-5.69915e-06
1.82105
0.131133
-2.70492e-06
1.78885
0.127255
-1.37984e-06
1.75775
0.122891
-7.71091e-07
1.7279
0.118062
7.60019e-08
1.69941
0.112816
1.9962e-07
1.67239
0.107221
-4.29945e-07
1.64691
0.101362
-6.12657e-07
1.62302
0.0953322
-8.81755e-08
1.60074
0.0892321
-1.4635e-07
1.58005
0.0831615
-9.96413e-07
1.56093
0.0772205
-1.1535e-06
1.54332
0.0715041
-2.68153e-07
1.52712
0.0660992
4.36726e-07
1.51224
0.061083
2.18748e-07
1.49853
0.0565228
-5.70248e-07
1.48587
0.0524733
-1.05956e-06
1.4741
0.0489742
-5.80433e-07
1.46306
0.0460463
5.04683e-07
1.45259
0.0436885
1.17798e-06
1.44254
0.0418774
1.05726e-06
1.43276
0.0405672
4.90573e-07
1.42314
0.0396923
-1.14576e-07
1.41358
0.0391721
-3.93513e-07
1.40401
0.0389186
-2.10794e-07
1.3944
0.0388433
1.05784e-07
1.38473
0.0388657
2.91744e-07
1.375
0.0389198
4.46103e-07
1.36523
0.0389567
5.34109e-07
1.35545
0.0389436
3.60817e-07
1.34567
0.038862
3.32748e-08
1.33592
0.0387024
-2.31547e-07
1.32623
0.0384589
-4.76282e-07
1.3166
0.0381241
-7.14329e-07
1.30707
0.0376868
-7.29475e-07
1.29767
0.0371311
-4.6629e-07
1.28842
0.0364369
-1.80756e-07
1.27937
0.035582
-6.55127e-08
1.27057
0.0345458
-7.09324e-08
1.26206
0.0333113
-8.96898e-08
1.25392
0.0318672
-6.97919e-08
1.24618
0.030208
-2.56769e-08
1.23892
0.0283334
-5.53855e-08
1.23217
0.0262466
-2.05444e-07
1.22601
0.0239533
-3.22418e-07
1.22046
0.0214584
-2.55043e-07
1.21559
0.0187637
-1.35055e-07
1.21142
0.0158659
-1.72605e-07
1.20802
0.0127556
-2.56505e-07
1.20543
0.00941534
-1.0405e-07
1.2037
0.00581871
2.32028e-07
1.2029
0.00192842
3.8081e-07
1.20311
-0.00230404
2.1703e-07
1.20441
-0.00693914
5.9058e-08
1.2069
-0.0120507
1.8402e-07
1.21073
-0.0177271
4.27209e-07
1.21603
-0.0240731
4.42475e-07
1.223
-0.0312106
1.75015e-07
1.23185
-0.0392796
-1.17236e-07
1.24283
-0.0484395
-2.15065e-07
1.25627
-0.0588676
-1.36978e-07
1.27253
-0.070757
-2.38679e-08
1.29204
-0.08431
2.44709e-08
1.31529
-0.0997264
-1.72849e-08
1.34287
-0.117183
-1.17277e-07
1.37544
-0.136801
-1.92721e-07
1.41371
-0.158594
-1.7045e-07
1.45844
-0.18239
-8.81546e-08
1.51034
-0.207725
-8.68095e-08
1.56995
-0.233698
-2.48672e-07
1.63735
-0.258815
-4.65934e-07
1.71186
-0.280891
-5.24518e-07
1.79151
-0.297175
-3.25083e-07
1.87282
-0.305007
9.75342e-09
1.95117
-0.303342
2.54129e-07
2.02249
-0.294932
2.78123e-07
2.08579
-0.287371
1.23569e-07
2.14421
-0.290427
-7.47141e-08
2.20463
-0.313126
-1.99759e-07
2.2773
-0.362555
-1.99982e-07
2.3763
-0.443376
-8.79772e-08
2.52046
-0.556004
6.73181e-08
2.73289
-0.690771
1.64024e-07
3.03036
-0.8098
1.27445e-07
3.36585
-0.79305
-2.6077e-08
3.46416
-0.361327
-1.87511e-07
3.41995
-0.0235399
-2.33248e-07
3.34909
0.144025
-1.52425e-07
3.23943
0.292254
-3.35649e-08
3.11755
0.380301
3.24017e-08
2.99255
0.435154
3.11484e-08
2.88795
0.451075
2.1153e-08
2.78403
0.495811
5.56993e-08
2.6524
0.589318
1.24403e-07
2.47812
0.713426
1.6641e-07
2.24891
0.854656
1.32733e-07
1.97651
0.96984
3.09765e-08
1.68751
1.03028
-8.42792e-08
1.40401
1.03959
-1.58973e-07
1.13619
1.01763
-1.77504e-07
0.885861
0.982435
-1.6239e-07
0.650841
0.94588
-1.44176e-07
0.427485
0.914768
-1.3375e-07
0.211838
0.892661
-1.20546e-07
0.88127
-7.99237e-08
0.292579
1.29269
-0.171921
0.544664
1.24202
-0.15108
0.740005
1.15502
-0.120066
0.880911
1.04971
-0.088811
0.978623
0.940628
-0.0625523
1.04592
0.836749
-0.0426388
1.09362
0.742386
-0.0283907
1.12973
0.658826
-0.0184693
1.15975
0.585737
-0.0115833
1.18727
0.522088
-0.00672272
1.21459
0.466674
-0.00318523
1.24309
0.418337
-0.000535176
1.27357
0.37605
0.00158643
1.3066
0.339062
0.00351668
1.34251
0.306798
0.00543108
1.38153
0.278864
0.0074479
1.42383
0.255022
0.0096267
1.46959
0.235175
0.0119518
1.51898
0.219334
0.0142991
1.57221
0.207595
0.0164155
1.62979
0.200261
0.0178392
1.69243
0.197772
0.01761
1.76076
0.200512
0.0139797
1.83433
0.20823
0.00442215
1.91324
0.220389
-0.0126679
1.99719
0.236766
-0.0379673
2.08215
0.254777
-0.0717674
2.16224
0.270965
-0.108483
2.2315
0.282684
-0.132667
2.28262
0.287625
-0.12439
2.30834
0.283227
-0.0860157
2.30977
0.27062
-0.0485243
2.29428
0.25436
-0.0255669
2.26868
0.23807
-0.0131513
2.23765
0.223663
-0.00667011
2.20398
0.211826
-0.00336087
2.16912
0.202556
-0.00169372
2.13377
0.195522
-0.000856938
2.0982
0.190272
-0.000436789
2.06253
0.18633
-0.000225108
2.0268
0.18325
-0.000117599
1.99109
0.180632
-6.19911e-05
1.9555
0.178136
-3.33085e-05
1.92014
0.175485
-1.76786e-05
1.88519
0.172466
-9.04311e-06
1.8508
0.168924
-4.5638e-06
1.81717
0.164765
-2.53355e-06
1.78448
0.159941
-1.34806e-06
1.75292
0.154451
-3.28948e-07
1.72265
0.148332
-5.06861e-09
1.69382
0.141652
-4.58446e-07
1.66653
0.134508
-8.84811e-07
1.64088
0.127013
-4.64182e-07
1.61692
0.119295
-2.5281e-07
1.59467
0.111484
-1.10976e-06
1.57411
0.103715
-1.49163e-06
1.55522
0.0961159
-5.6174e-07
1.53791
0.0888099
3.5354e-07
1.52211
0.0819089
2.63574e-07
1.50768
0.0755143
-5.21719e-07
1.49448
0.0697148
-1.19186e-06
1.48237
0.0645836
-9.86705e-07
1.47117
0.0601745
8.77508e-08
1.4607
0.0565168
1.12482e-06
1.45078
0.0536118
1.41404e-06
1.44123
0.0514299
1.02228e-06
1.43189
0.049909
3.18611e-07
1.42262
0.0489585
-2.55548e-07
1.41333
0.0484657
-3.24062e-07
1.40394
0.0483062
-1.54869e-08
1.39442
0.0483562
2.78543e-07
1.38478
0.0485051
5.12988e-07
1.37504
0.0486649
7.10323e-07
1.36522
0.0487739
6.04316e-07
1.35537
0.0487963
1.54215e-07
1.34551
0.0487175
-2.57111e-07
1.33568
0.0485343
-4.55592e-07
1.32589
0.0482468
-6.18972e-07
1.31616
0.0478507
-7.35604e-07
1.30652
0.0473339
-5.8387e-07
1.29697
0.0466752
-2.12096e-07
1.28757
0.0458458
7.48969e-08
1.27834
0.0448133
1.3162e-07
1.26933
0.0435478
6.22294e-08
1.26062
0.0420254
1.07202e-08
1.25226
0.0402312
2.24181e-08
1.24431
0.0381593
1.91003e-08
1.23683
0.0358115
-1.02115e-07
1.22988
0.0331958
-2.77202e-07
1.22351
0.0303234
-3.12819e-07
1.21777
0.027204
-2.0379e-07
1.21269
0.0238436
-1.85734e-07
1.20831
0.0202412
-3.2731e-07
1.20468
0.0163879
-3.41119e-07
1.20183
0.0122644
-2.52521e-08
1.19981
0.00783938
3.49929e-07
1.19867
0.00306817
3.85877e-07
1.19847
-0.00210769
1.25729e-07
1.1993
-0.00776157
-2.47419e-08
1.20123
-0.0139835
1.23367e-07
1.20438
-0.0208821
3.2662e-07
1.2089
-0.0285858
2.89267e-07
1.21493
-0.0372456
2.8208e-08
1.22269
-0.0470366
-2.1797e-07
1.23241
-0.0581605
-2.84505e-07
1.24439
-0.0708463
-1.8732e-07
1.25898
-0.0853498
-3.72893e-08
1.27662
-0.10195
4.69427e-08
1.29783
-0.120939
-7.50879e-09
1.32325
-0.142603
-1.65593e-07
1.35364
-0.167192
-2.881e-07
1.38991
-0.194861
-2.69594e-07
1.4331
-0.225582
-1.74492e-07
1.48437
-0.258991
-1.7437e-07
1.54483
-0.294158
-3.32528e-07
1.61528
-0.329261
-5.00763e-07
1.69557
-0.361187
-4.68946e-07
1.78368
-0.385279
-1.95929e-07
1.87449
-0.395818
1.42505e-07
1.95958
-0.388436
3.25939e-07
2.03005
-0.365396
2.77643e-07
2.08273
-0.340057
8.98581e-08
2.12151
-0.329206
-8.61874e-08
2.1552
-0.346812
-1.46343e-07
2.19648
-0.403829
-6.72917e-08
2.26368
-0.510575
1.01596e-07
2.38569
-0.678017
2.57564e-07
2.61386
-0.918937
2.89649e-07
3.04711
-1.24305
1.51625e-07
3.79757
-1.575
-9.08649e-08
3.80194
-0.511215
-2.89238e-07
3.58751
0.201264
-2.7979e-07
3.49731
0.244734
-1.46902e-07
3.32748
0.470546
-1.29312e-08
3.17241
0.540725
3.59705e-08
3.00847
0.599089
1.38307e-08
2.93269
0.526858
2.78851e-09
2.87754
0.550965
4.92337e-08
2.77651
0.690345
1.27181e-07
2.61935
0.870584
1.68024e-07
2.36409
1.10991
1.27269e-07
2.03695
1.29698
1.97469e-08
1.69682
1.37041
-9.65947e-08
1.38206
1.35436
-1.70516e-07
1.10099
1.2987
-1.8959e-07
0.849306
1.23412
-1.75452e-07
0.619729
1.17546
-1.54924e-07
0.405378
1.12912
-1.3717e-07
0.200446
1.09759
-1.14348e-07
1.08172
-6.61012e-08
0.241906
1.2925
-0.103912
0.457665
1.25291
-0.0930776
0.634699
1.18277
-0.0762644
0.771827
1.09437
-0.0583992
0.874744
0.998745
-0.0425538
0.951554
0.903756
-0.0298772
1.01006
0.814015
-0.0203098
1.05664
0.731698
-0.013284
1.0961
0.65744
-0.00814052
1.13186
0.591046
-0.00431563
1.16625
0.531938
-0.00140895
1.2008
0.479364
0.000868179
1.23658
0.432689
0.00286664
1.27434
0.391383
0.00479202
1.31457
0.355045
0.00677849
1.35768
0.323418
0.00890711
1.40398
0.296384
0.0111929
1.45375
0.273953
0.0135557
1.50724
0.256219
0.0157898
1.56487
0.243463
0.0175327
1.6273
0.23616
0.0180462
1.69517
0.23482
0.0159172
1.76848
0.239574
0.00891557
1.84649
0.24944
-0.00519996
1.92962
0.264691
-0.0268802
2.0152
0.283321
-0.0569869
2.09834
0.301831
-0.0928436
2.17396
0.317164
-0.123752
2.23644
0.326994
-0.130975
2.27822
0.328297
-0.103858
2.29573
0.319753
-0.0638447
2.29351
0.304849
-0.035222
2.27799
0.287829
-0.0188487
2.25427
0.271471
-0.00992073
2.22582
0.257215
-0.00516237
2.19471
0.245583
-0.00267024
2.16209
0.236553
-0.0013805
2.12852
0.229811
-0.00071569
2.09426
0.224907
-0.000373626
2.05945
0.221339
-0.0001966
2.02418
0.218613
-0.00010407
1.9886
0.216269
-5.55982e-05
1.95285
0.213914
-2.93812e-05
1.91713
0.211224
-1.49689e-05
1.88164
0.207954
-7.84506e-06
1.84664
0.203933
-4.3218e-06
1.81234
0.19906
-2.23484e-06
1.77899
0.193292
-9.90564e-07
1.7468
0.186639
-4.39746e-07
1.71597
0.17916
-4.49369e-07
1.68667
0.170953
-8.0961e-07
1.65904
0.162145
-7.09795e-07
1.63316
0.152889
-4.1465e-07
1.60911
0.14335
-9.56184e-07
1.5869
0.133696
-1.46709e-06
1.56651
0.124099
-8.83296e-07
1.54791
0.114719
-5.08126e-08
1.53101
0.10571
3.27827e-08
1.51571
0.0972106
-5.43409e-07
1.50188
0.0893495
-1.16813e-06
1.48935
0.0822388
-1.15275e-06
1.47796
0.0759731
-2.98345e-07
1.46751
0.0706244
8.03571e-07
1.4578
0.0662352
1.48563e-06
1.4486
0.0628126
1.51168e-06
1.43971
0.060321
8.91363e-07
1.43094
0.0586798
-3.31966e-10
1.42213
0.0577667
-4.45159e-07
1.41317
0.0574259
-2.24638e-07
1.40399
0.0574842
1.60595e-07
1.39457
0.0577701
4.21948e-07
1.38494
0.0581337
6.80412e-07
1.37515
0.0584604
7.55756e-07
1.36524
0.058677
3.66291e-07
1.35529
0.0587506
-1.73433e-07
1.34533
0.058678
-3.97801e-07
1.33539
0.0584712
-4.31625e-07
1.32549
0.0581432
-5.66304e-07
1.31565
0.057698
-6.20046e-07
1.30586
0.0571234
-3.18058e-07
1.29615
0.0563906
1.42992e-07
1.28653
0.0554574
3.61285e-07
1.27707
0.054277
2.56377e-07
1.26781
0.0528059
6.25678e-08
1.25883
0.0510111
-1.58225e-08
1.25018
0.0488729
-2.36469e-11
1.24196
0.0463858
-4.89736e-08
1.23421
0.0435569
-2.09388e-07
1.22701
0.0404019
-3.15923e-07
1.22039
0.0369406
-2.4652e-07
1.21441
0.0331908
-1.67191e-07
1.20909
0.0291651
-2.8812e-07
1.20446
0.0248675
-4.57463e-07
1.20056
0.020291
-3.17839e-07
1.19741
0.0154156
1.26899e-07
1.19504
0.0102063
4.3326e-07
1.19349
0.00461237
3.07306e-07
1.19282
-0.00143334
-7.27869e-09
1.19307
-0.00801581
-9.16552e-08
1.19433
-0.0152398
1.02877e-07
1.19668
-0.0232318
2.66905e-07
1.20024
-0.0321424
1.71211e-07
1.20514
-0.0421492
-1.00184e-07
1.21156
-0.0534604
-3.1623e-07
1.21972
-0.0663191
-3.3825e-07
1.22988
-0.0810066
-1.85744e-07
1.24238
-0.0978458
1.26865e-08
1.25763
-0.117201
9.52405e-08
1.27617
-0.139475
-1.8872e-08
1.29866
-0.165098
-2.36752e-07
1.32597
-0.194502
-3.62349e-07
1.35919
-0.228078
-3.07078e-07
1.3997
-0.266087
-1.96194e-07
1.4492
-0.308498
-2.16968e-07
1.50973
-0.354684
-3.80717e-07
1.58335
-0.402885
-4.92943e-07
1.67148
-0.449318
-3.70765e-07
1.77314
-0.486935
-4.79822e-08
1.88187
-0.504551
2.60166e-07
1.98262
-0.489188
3.67745e-07
2.05539
-0.43816
2.65039e-07
2.09359
-0.378256
8.21401e-08
2.10391
-0.339527
-3.84834e-08
2.09818
-0.341088
-2.57123e-08
2.08973
-0.395374
1.09148e-07
2.09623
-0.517079
2.89189e-07
2.14477
-0.726553
3.99267e-07
2.28974
-1.06391
3.42046e-07
2.71516
-1.62057
1.08756e-07
4.86136
-2.63912
-2.06659e-07
4.51442
-2.37536
-4.47796e-07
3.63098
-0.191595
-2.95518e-07
3.72313
1.79554
-1.3228e-07
3.39766
1.95989
-4.43742e-09
3.23077
1.3609
2.14231e-08
2.93624
0.971989
-1.24837e-08
2.9568
0.553394
-1.06593e-09
3.01692
0.5312
6.59556e-08
2.95675
0.777311
1.46386e-07
2.85868
0.994681
1.72928e-07
2.55116
1.41743
1.15781e-07
2.11038
1.73776
-1.89175e-10
1.68077
1.80003
-1.12953e-07
1.3264
1.70872
-1.79349e-07
1.0364
1.58871
-1.93781e-07
0.790645
1.47987
-1.76889e-07
0.573393
1.39271
-1.50944e-07
0.373851
1.32866
-1.23855e-07
0.18457
1.28688
-9.19208e-08
1.26629
-4.01433e-08
0.202317
1.28061
-0.0628991
0.38753
1.24948
-0.0571258
0.546295
1.19296
-0.0479136
0.676204
1.11934
-0.0377159
0.779755
1.03673
-0.0282263
0.861813
0.951576
-0.0202274
0.927741
0.868221
-0.0138514
0.982386
0.789233
-0.00889781
1.02971
0.715886
-0.00505934
1.07275
0.648635
-0.00205862
1.11368
0.587395
0.000315802
1.15413
0.531942
0.0023665
1.19528
0.481989
0.00430185
1.238
0.437277
0.00626526
1.28295
0.397624
0.00834826
1.33065
0.362954
0.0105852
1.38155
0.333311
0.0129253
1.43602
0.308821
0.0151995
1.49448
0.289777
0.0171011
1.55757
0.276695
0.0180322
1.62596
0.270188
0.0168217
1.69993
0.2706
0.0115039
1.77835
0.277168
-0.00036615
1.86174
0.290058
-0.0192738
1.94825
0.307789
-0.0462008
2.03371
0.327026
-0.0799625
2.11367
0.344457
-0.113136
2.18379
0.357761
-0.130112
2.23774
0.364031
-0.115289
2.26968
0.360436
-0.0776508
2.28083
0.348612
-0.0449393
2.27649
0.332695
-0.0249709
2.26163
0.315923
-0.0136333
2.24001
0.300312
-0.00733499
2.21418
0.286921
-0.00390493
2.18568
0.27615
-0.00206849
2.15535
0.26798
-0.0010952
2.12361
0.262126
-0.000581378
2.09069
0.258138
-0.00031005
2.05672
0.255476
-0.00016605
2.02184
0.253579
-8.88996e-05
1.98624
0.251915
-4.74171e-05
1.95016
0.250024
-2.48526e-05
1.91386
0.24754
-1.30854e-05
1.87762
0.24419
-6.93737e-06
1.84177
0.239795
-3.72323e-06
1.80658
0.234251
-1.95736e-06
1.77234
0.227526
-8.85731e-07
1.73933
0.219653
-4.10157e-07
1.70777
0.210718
-4.18284e-07
1.67787
0.200853
-5.00799e-07
1.64978
0.190232
-4.75106e-07
1.62362
0.17905
-8.22972e-07
1.59945
0.167519
-1.29715e-06
1.5773
0.155854
-1.10801e-06
1.55713
0.144265
-4.92063e-07
1.5389
0.132952
-2.01746e-07
1.52251
0.122098
-4.77837e-07
1.50785
0.111874
-1.01393e-06
1.49477
0.102434
-1.16986e-06
1.48309
0.0939183
-5.80344e-07
1.47261
0.0864463
4.02025e-07
1.46313
0.0801149
1.25677e-06
1.45438
0.0749874
1.69017e-06
1.44611
0.071082
1.39851e-06
1.43807
0.0683606
4.14077e-07
1.43002
0.0667221
-4.61929e-07
1.42179
0.0660026
-5.44628e-07
1.41322
0.0659873
-1.56277e-07
1.40427
0.0664344
1.52342e-07
1.39494
0.0671065
4.30159e-07
1.38527
0.0677996
6.90891e-07
1.37537
0.0683659
5.41537e-07
1.36532
0.0687236
1.44855e-08
1.35522
0.0688521
-2.96998e-07
1.34512
0.0687736
-2.48526e-07
1.33506
0.0685292
-2.95098e-07
1.32505
0.068157
-5.23505e-07
1.31507
0.0676752
-4.64564e-07
1.30513
0.067072
3.50765e-08
1.29521
0.0663063
5.02544e-07
1.28535
0.0653158
5.2145e-07
1.2756
0.0640307
2.23426e-07
1.26602
0.0623879
-1.12923e-08
1.25669
0.0603404
-4.09045e-08
1.2477
0.0578633