/*--------------------------------*- C++ -*----------------------------------*\
| =========                 |                                                 |
| \\      /  F ield         | OpenFOAM: The Open Source CFD Toolbox           |
|  \\    /   O peration     | Version:  2.1.0                                 |
|   \\  /    A nd           | Web:      www.OpenFOAM.org                      |
|    \\/     M anipulation  |                                                 |
\*---------------------------------------------------------------------------*/
FoamFile
{
    version     2.0;
    format      ascii;
    class       volScalarField;
    location    "16060";
    object      po;
}
// * * * * * * * * * * * * * * * * * * * * * * * * * * * * * * * * * * * * * //

dimensions      [1 -1 -2 0 0 0 0];

internalField   nonuniform List<scalar> 
75000
(
4383.21
4382.64
4381.67
4380.48
4379.19
4377.86
4376.52
4375.19
4373.87
4372.54
4371.22
4369.89
4368.55
4367.2
4365.82
4364.41
4362.98
4361.51
4360.01
4358.46
4356.87
4355.23
4353.54
4351.79
4349.98
4348.1
4346.15
4344.12
4342
4339.79
4337.51
4335.17
4332.82
4330.48
4328.17
4325.9
4323.68
4321.49
4319.34
4317.23
4315.16
4313.13
4311.13
4309.17
4307.24
4305.35
4303.49
4301.66
4299.86
4298.1
4296.36
4294.66
4292.98
4291.32
4289.69
4288.08
4286.49
4284.92
4283.37
4281.83
4280.32
4278.81
4277.32
4275.84
4274.37
4272.92
4271.47
4270.04
4268.62
4267.2
4265.8
4264.4
4263.02
4261.64
4260.28
4258.92
4257.58
4256.24
4254.91
4253.6
4252.29
4250.99
4249.7
4248.42
4247.15
4245.88
4244.63
4243.38
4242.13
4240.9
4239.67
4238.44
4237.22
4236.01
4234.8
4233.58
4232.38
4231.17
4229.96
4228.74
4227.53
4226.31
4225.08
4223.84
4222.6
4221.34
4220.06
4218.77
4217.46
4216.11
4214.74
4213.34
4211.89
4210.39
4208.85
4207.24
4205.58
4203.84
4202.04
4200.16
4198.21
4196.18
4194.08
4191.89
4189.61
4187.23
4184.74
4182.11
4179.34
4176.43
4173.39
4170.28
4167.14
4164
4160.92
4157.92
4155.01
4152.22
4149.57
4147.07
4144.75
4142.64
4140.75
4139.09
4137.69
4136.52
4135.6
4134.91
4134.46
4134.23
4382.64
4382.13
4381.24
4380.13
4378.9
4377.63
4376.33
4375.03
4373.72
4372.42
4371.11
4369.8
4368.47
4367.12
4365.75
4364.35
4362.92
4361.46
4359.96
4358.42
4356.83
4355.19
4353.5
4351.75
4349.94
4348.06
4346.1
4344.06
4341.93
4339.72
4337.44
4335.11
4332.76
4330.43
4328.12
4325.86
4323.63
4321.45
4319.3
4317.19
4315.12
4313.09
4311.09
4309.13
4307.2
4305.31
4303.45
4301.63
4299.83
4298.07
4296.34
4294.63
4292.95
4291.3
4289.67
4288.06
4286.47
4284.9
4283.35
4281.82
4280.3
4278.8
4277.31
4275.83
4274.36
4272.91
4271.46
4270.03
4268.61
4267.19
4265.79
4264.39
4263.01
4261.63
4260.27
4258.91
4257.57
4256.23
4254.9
4253.59
4252.28
4250.98
4249.69
4248.41
4247.14
4245.87
4244.62
4243.37
4242.13
4240.89
4239.66
4238.44
4237.22
4236.01
4234.79
4233.58
4232.37
4231.17
4229.96
4228.75
4227.53
4226.31
4225.09
4223.85
4222.61
4221.36
4220.08
4218.79
4217.48
4216.15
4214.78
4213.38
4211.93
4210.45
4208.9
4207.31
4205.64
4203.91
4202.11
4200.24
4198.29
4196.26
4194.16
4191.98
4189.71
4187.35
4184.87
4182.25
4179.48
4176.55
4173.47
4170.31
4167.12
4163.96
4160.85
4157.82
4154.9
4152.09
4149.41
4146.89
4144.55
4142.42
4140.51
4138.85
4137.44
4136.28
4135.36
4134.68
4134.23
4134
4381.69
4381.26
4380.49
4379.5
4378.37
4377.18
4375.95
4374.71
4373.45
4372.18
4370.9
4369.61
4368.3
4366.97
4365.62
4364.23
4362.82
4361.36
4359.87
4358.33
4356.75
4355.11
4353.42
4351.67
4349.85
4347.96
4345.99
4343.94
4341.8
4339.59
4337.3
4334.98
4332.64
4330.32
4328.03
4325.77
4323.55
4321.36
4319.22
4317.12
4315.05
4313.02
4311.02
4309.06
4307.14
4305.25
4303.39
4301.57
4299.77
4298.01
4296.28
4294.58
4292.9
4291.25
4289.62
4288.02
4286.43
4284.87
4283.32
4281.79
4280.27
4278.77
4277.28
4275.81
4274.34
4272.89
4271.44
4270.01
4268.59
4267.17
4265.77
4264.37
4262.99
4261.61
4260.25
4258.89
4257.55
4256.21
4254.89
4253.57
4252.26
4250.96
4249.67
4248.39
4247.12
4245.86
4244.6
4243.36
4242.12
4240.88
4239.65
4238.43
4237.21
4236
4234.79
4233.58
4232.37
4231.17
4229.96
4228.75
4227.54
4226.33
4225.1
4223.88
4222.64
4221.39
4220.12
4218.84
4217.53
4216.21
4214.85
4213.46
4212.03
4210.55
4209.02
4207.43
4205.78
4204.06
4202.26
4200.39
4198.44
4196.41
4194.32
4192.15
4189.91
4187.58
4185.14
4182.55
4179.78
4176.81
4173.64
4170.37
4167.09
4163.85
4160.69
4157.62
4154.66
4151.82
4149.1
4146.53
4144.14
4141.96
4140.03
4138.36
4136.95
4135.79
4134.89
4134.22
4133.77
4133.55
4380.52
4380.17
4379.52
4378.66
4377.66
4376.57
4375.43
4374.25
4373.05
4371.84
4370.6
4369.34
4368.06
4366.76
4365.42
4364.06
4362.66
4361.22
4359.73
4358.2
4356.62
4354.99
4353.3
4351.55
4349.72
4347.82
4345.84
4343.77
4341.62
4339.4
4337.12
4334.8
4332.47
4330.16
4327.88
4325.63
4323.42
4321.24
4319.1
4317
4314.94
4312.91
4310.91
4308.96
4307.03
4305.15
4303.29
4301.47
4299.68
4297.92
4296.2
4294.5
4292.82
4291.18
4289.55
4287.95
4286.37
4284.81
4283.27
4281.74
4280.23
4278.73
4277.25
4275.77
4274.31
4272.86
4271.41
4269.98
4268.56
4267.14
4265.74
4264.34
4262.96
4261.59
4260.22
4258.86
4257.52
4256.18
4254.86
4253.54
4252.23
4250.94
4249.65
4248.37
4247.1
4245.83
4244.58
4243.33
4242.1
4240.86
4239.64
4238.42
4237.2
4235.99
4234.78
4233.58
4232.37
4231.17
4229.97
4228.76
4227.56
4226.35
4225.13
4223.91
4222.67
4221.43
4220.18
4218.9
4217.61
4216.3
4214.95
4213.58
4212.16
4210.7
4209.19
4207.62
4205.99
4204.28
4202.48
4200.61
4198.66
4196.64
4194.55
4192.41
4190.2
4187.93
4185.55
4183.03
4180.3
4177.27
4173.9
4170.44
4167.02
4163.67
4160.43
4157.31
4154.32
4151.43
4148.64
4145.99
4143.51
4141.27
4139.29
4137.6
4136.2
4135.06
4134.18
4133.52
4133.1
4132.89
4379.26
4378.97
4378.42
4377.68
4376.8
4375.82
4374.78
4373.69
4372.56
4371.4
4370.21
4368.99
4367.75
4366.48
4365.17
4363.83
4362.45
4361.02
4359.55
4358.03
4356.46
4354.83
4353.14
4351.38
4349.54
4347.63
4345.63
4343.55
4341.39
4339.16
4336.88
4334.57
4332.26
4329.96
4327.69
4325.46
4323.25
4321.08
4318.95
4316.85
4314.79
4312.76
4310.77
4308.82
4306.9
4305.01
4303.16
4301.34
4299.56
4297.81
4296.08
4294.39
4292.72
4291.08
4289.46
4287.87
4286.3
4284.74
4283.2
4281.68
4280.17
4278.68
4277.2
4275.72
4274.26
4272.81
4271.37
4269.94
4268.52
4267.1
4265.7
4264.31
4262.92
4261.55
4260.18
4258.83
4257.48
4256.14
4254.82
4253.5
4252.2
4250.9
4249.61
4248.33
4247.06
4245.8
4244.55
4243.31
4242.07
4240.84
4239.62
4238.4
4237.19
4235.98
4234.77
4233.57
4232.37
4231.17
4229.97
4228.77
4227.57
4226.37
4225.16
4223.95
4222.72
4221.49
4220.25
4218.99
4217.71
4216.41
4215.09
4213.74
4212.35
4210.91
4209.43
4207.88
4206.27
4204.57
4202.79
4200.91
4198.95
4196.92
4194.84
4192.72
4190.57
4188.37
4186.11
4183.72
4181.11
4178.06
4174.26
4170.46
4166.87
4163.37
4160.05
4156.87
4153.87
4150.93
4148.06
4145.28
4142.66
4140.3
4138.26
4136.56
4135.18
4134.08
4133.23
4132.61
4132.2
4132
4377.97
4377.73
4377.27
4376.63
4375.86
4374.99
4374.04
4373.03
4371.97
4370.87
4369.74
4368.58
4367.37
4366.14
4364.86
4363.55
4362.19
4360.79
4359.33
4357.83
4356.26
4354.63
4352.94
4351.17
4349.32
4347.39
4345.38
4343.28
4341.11
4338.87
4336.59
4334.3
4332
4329.73
4327.47
4325.25
4323.05
4320.89
4318.76
4316.67
4314.61
4312.58
4310.59
4308.64
4306.72
4304.84
4303
4301.18
4299.4
4297.66
4295.94
4294.25
4292.6
4290.96
4289.35
4287.77
4286.2
4284.65
4283.12
4281.61
4280.1
4278.61
4277.14
4275.67
4274.21
4272.76
4271.32
4269.89
4268.47
4267.06
4265.65
4264.26
4262.87
4261.5
4260.13
4258.78
4257.43
4256.1
4254.77
4253.46
4252.15
4250.85
4249.57
4248.29
4247.02
4245.76
4244.51
4243.27
4242.04
4240.81
4239.59
4238.37
4237.17
4235.96
4234.76
4233.56
4232.37
4231.17
4229.98
4228.79
4227.59
4226.4
4225.2
4223.99
4222.78
4221.56
4220.33
4219.09
4217.83
4216.55
4215.26
4213.93
4212.57
4211.17
4209.72
4208.21
4206.63
4204.96
4203.18
4201.3
4199.32
4197.26
4195.17
4193.07
4190.97
4188.88
4186.78
4184.64
4182.35
4179.63
4174.77
4170.26
4166.63
4162.9
4159.51
4156.28
4153.34
4150.38
4147.37
4144.41
4141.55
4139
4136.89
4135.21
4133.88
4132.84
4132.05
4131.48
4131.11
4130.92
4376.68
4376.47
4376.09
4375.54
4374.86
4374.08
4373.22
4372.29
4371.31
4370.28
4369.21
4368.1
4366.94
4365.75
4364.51
4363.23
4361.9
4360.51
4359.08
4357.58
4356.03
4354.4
4352.7
4350.92
4349.06
4347.11
4345.08
4342.96
4340.78
4338.54
4336.27
4333.99
4331.72
4329.45
4327.21
4325
4322.81
4320.66
4318.54
4316.44
4314.39
4312.37
4310.38
4308.43
4306.52
4304.64
4302.8
4300.99
4299.22
4297.48
4295.77
4294.09
4292.44
4290.82
4289.22
4287.64
4286.09
4284.55
4283.02
4281.52
4280.02
4278.54
4277.07
4275.6
4274.15
4272.7
4271.26
4269.83
4268.41
4267
4265.59
4264.2
4262.81
4261.44
4260.07
4258.72
4257.37
4256.04
4254.71
4253.4
4252.09
4250.8
4249.51
4248.24
4246.97
4245.71
4244.47
4243.23
4242
4240.77
4239.56
4238.35
4237.14
4235.94
4234.75
4233.55
4232.36
4231.18
4229.99
4228.8
4227.62
4226.43
4225.24
4224.05
4222.85
4221.64
4220.43
4219.21
4217.97
4216.72
4215.45
4214.16
4212.84
4211.48
4210.08
4208.62
4207.08
4205.44
4203.69
4201.79
4199.76
4197.64
4195.51
4193.41
4191.36
4189.4
4187.51
4185.7
4183.97
4182.27
4177.15
4170.45
4164.83
4160.94
4158.14
4155.3
4152.79
4149.85
4146.59
4143.41
4140.13
4137.26
4135.09
4133.5
4132.29
4131.36
4130.66
4130.15
4129.82
4129.66
4375.4
4375.22
4374.89
4374.42
4373.83
4373.13
4372.35
4371.51
4370.6
4369.63
4368.62
4367.56
4366.46
4365.31
4364.11
4362.86
4361.56
4360.2
4358.79
4357.31
4355.76
4354.13
4352.42
4350.63
4348.75
4346.78
4344.73
4342.61
4340.42
4338.18
4335.92
4333.66
4331.4
4329.15
4326.93
4324.72
4322.55
4320.4
4318.28
4316.19
4314.13
4312.11
4310.13
4308.18
4306.27
4304.4
4302.56
4300.76
4299
4297.27
4295.57
4293.9
4292.26
4290.65
4289.06
4287.5
4285.95
4284.42
4282.91
4281.41
4279.93
4278.45
4276.99
4275.53
4274.08
4272.63
4271.2
4269.77
4268.35
4266.93
4265.53
4264.13
4262.75
4261.37
4260
4258.65
4257.3
4255.97
4254.65
4253.33
4252.03
4250.73
4249.45
4248.17
4246.91
4245.66
4244.41
4243.18
4241.95
4240.73
4239.52
4238.31
4237.11
4235.92
4234.73
4233.54
4232.36
4231.18
4230
4228.82
4227.64
4226.46
4225.29
4224.1
4222.92
4221.73
4220.54
4219.34
4218.13
4216.9
4215.67
4214.42
4213.14
4211.83
4210.49
4209.09
4207.62
4206.05
4204.34
4202.42
4200.28
4198.04
4195.82
4193.69
4191.68
4189.83
4188.16
4186.68
4185.43
4184
4178.39
4169.75
4163.07
4158.55
4154.97
4151.89
4149.19
4146.36
4144.41
4141.52
4138.16
4134.7
4132.7
4131.41
4130.42
4129.66
4129.07
4128.65
4128.36
4128.23
4374.13
4373.98
4373.7
4373.29
4372.76
4372.15
4371.44
4370.67
4369.83
4368.94
4367.99
4366.99
4365.94
4364.83
4363.68
4362.47
4361.2
4359.87
4358.47
4357
4355.45
4353.82
4352.11
4350.3
4348.4
4346.42
4344.35
4342.22
4340.03
4337.8
4335.55
4333.3
4331.06
4328.83
4326.61
4324.42
4322.25
4320.1
4317.99
4315.9
4313.85
4311.83
4309.84
4307.9
4305.99
4304.12
4302.29
4300.5
4298.74
4297.02
4295.34
4293.68
4292.06
4290.46
4288.89
4287.33
4285.8
4284.29
4282.79
4281.3
4279.82
4278.36
4276.9
4275.44
4274
4272.56
4271.12
4269.69
4268.27
4266.86
4265.45
4264.05
4262.67
4261.29
4259.93
4258.57
4257.23
4255.89
4254.57
4253.25
4251.95
4250.66
4249.37
4248.1
4246.84
4245.59
4244.35
4243.12
4241.89
4240.68
4239.47
4238.27
4237.08
4235.89
4234.7
4233.52
4232.35
4231.17
4230
4228.84
4227.67
4226.5
4225.33
4224.17
4223
4221.83
4220.65
4219.47
4218.29
4217.1
4215.9
4214.69
4213.47
4212.23
4210.96
4209.64
4208.27
4206.81
4205.18
4203.26
4200.9
4198.41
4196.04
4193.85
4191.85
4190.09
4188.6
4187.4
4186.5
4184.99
4177.33
4167.08
4159.16
4153.05
4148.31
4144.78
4142.21
4140.32
4139.48
4136.84
4132.7
4130.41
4129.72
4129
4128.34
4127.78
4127.33
4126.99
4126.77
4126.66
4372.87
4372.75
4372.5
4372.14
4371.68
4371.13
4370.5
4369.8
4369.03
4368.2
4367.32
4366.37
4365.38
4364.32
4363.21
4362.04
4360.8
4359.5
4358.12
4356.66
4355.12
4353.49
4351.76
4349.94
4348.03
4346.03
4343.95
4341.81
4339.62
4337.4
4335.17
4332.93
4330.7
4328.48
4326.28
4324.09
4321.93
4319.78
4317.67
4315.58
4313.52
4311.5
4309.52
4307.57
4305.67
4303.81
4301.98
4300.2
4298.45
4296.75
4295.07
4293.44
4291.83
4290.24
4288.69
4287.15
4285.63
4284.13
4282.65
4281.17
4279.71
4278.25
4276.8
4275.36
4273.91
4272.48
4271.04
4269.61
4268.19
4266.77
4265.36
4263.97
4262.58
4261.2
4259.84
4258.48
4257.14
4255.8
4254.48
4253.17
4251.86
4250.57
4249.29
4248.02
4246.76
4245.51
4244.27
4243.05
4241.83
4240.62
4239.42
4238.22
4237.04
4235.85
4234.68
4233.5
4232.34
4231.17
4230.01
4228.85
4227.69
4226.54
4225.38
4224.23
4223.08
4221.92
4220.77
4219.62
4218.46
4217.31
4216.15
4214.99
4213.82
4212.65
4211.46
4210.25
4209.02
4207.72
4206.32
4204.59
4201.78
4198.79
4196.09
4193.82
4191.76
4190.09
4188.75
4187.76
4187.11
4182.38
4172.04
4162.1
4153.43
4146.17
4140.47
4136.68
4134.57
4133.22
4131.92
4129.33
4126.39
4126.94
4126.85
4126.53
4126.15
4125.79
4125.47
4125.23
4125.06
4124.97
4371.62
4371.51
4371.3
4370.99
4370.58
4370.1
4369.53
4368.9
4368.2
4367.43
4366.61
4365.73
4364.79
4363.78
4362.72
4361.59
4360.38
4359.11
4357.75
4356.3
4354.76
4353.12
4351.39
4349.55
4347.63
4345.62
4343.53
4341.39
4339.21
4337
4334.77
4332.55
4330.33
4328.12
4325.92
4323.74
4321.58
4319.44
4317.32
4315.22
4313.16
4311.14
4309.16
4307.21
4305.31
4303.45
4301.63
4299.86
4298.13
4296.44
4294.78
4293.16
4291.57
4290
4288.46
4286.95
4285.45
4283.97
4282.5
4281.04
4279.59
4278.14
4276.7
4275.26
4273.83
4272.39
4270.96
4269.53
4268.1
4266.68
4265.27
4263.87
4262.48
4261.1
4259.73
4258.38
4257.04
4255.7
4254.38
4253.07
4251.77
4250.47
4249.19
4247.92
4246.67
4245.42
4244.19
4242.97
4241.76
4240.55
4239.36
4238.17
4236.99
4235.81
4234.65
4233.48
4232.32
4231.16
4230.01
4228.86
4227.71
4226.57
4225.43
4224.29
4223.15
4222.02
4220.89
4219.76
4218.64
4217.52
4216.4
4215.29
4214.18
4213.08
4211.99
4210.9
4209.82
4208.75
4207.73
4206.77
4204.03
4200.16
4196.33
4193.11
4190.88
4189.63
4188.57
4187.76
4187.14
4178.43
4166.34
4155.84
4146.3
4137.72
4130.7
4126.91
4126.17
4126.09
4125.63
4124.07
4123.12
4124.16
4124.22
4124.13
4123.95
4123.74
4123.55
4123.38
4123.27
4123.21
4370.36
4370.27
4370.09
4369.82
4369.47
4369.04
4368.54
4367.97
4367.33
4366.64
4365.88
4365.05
4364.17
4363.22
4362.2
4361.11
4359.94
4358.69
4357.35
4355.91
4354.37
4352.73
4351
4349.16
4347.23
4345.21
4343.13
4340.98
4338.8
4336.59
4334.37
4332.15
4329.94
4327.74
4325.55
4323.37
4321.21
4319.07
4316.94
4314.84
4312.77
4310.74
4308.75
4306.81
4304.91
4303.05
4301.24
4299.48
4297.76
4296.09
4294.45
4292.85
4291.28
4289.74
4288.22
4286.73
4285.25
4283.79
4282.34
4280.89
4279.46
4278.03
4276.6
4275.17
4273.74
4272.31
4270.87
4269.44
4268.01
4266.58
4265.16
4263.76
4262.37
4260.99
4259.62
4258.27
4256.93
4255.6
4254.27
4252.96
4251.66
4250.37
4249.09
4247.82
4246.57
4245.32
4244.1
4242.88
4241.67
4240.48
4239.29
4238.11
4236.94
4235.77
4234.61
4233.45
4232.3
4231.15
4230.01
4228.87
4227.73
4226.6
4225.47
4224.35
4223.23
4222.12
4221.01
4219.9
4218.81
4217.72
4216.65
4215.58
4214.54
4213.51
4212.5
4211.53
4210.6
4209.74
4209
4208.46
4205
4199.98
4196.2
4192.65
4189.87
4187.63
4185.51
4183.09
4179.22
4169.48
4159.04
4148.63
4138.23
4127.71
4117.7
4114.1
4117.12
4119.32
4120.44
4120.23
4120.45
4121.49
4121.75
4121.82
4121.78
4121.69
4121.59
4121.49
4121.42
4121.38
4369.1
4369.02
4368.86
4368.63
4368.33
4367.96
4367.52
4367.01
4366.45
4365.81
4365.12
4364.36
4363.53
4362.63
4361.66
4360.61
4359.48
4358.25
4356.93
4355.5
4353.97
4352.34
4350.61
4348.78
4346.85
4344.83
4342.74
4340.59
4338.4
4336.19
4333.96
4331.75
4329.54
4327.35
4325.17
4322.99
4320.83
4318.68
4316.54
4314.42
4312.34
4310.3
4308.3
4306.35
4304.46
4302.61
4300.81
4299.06
4297.36
4295.7
4294.08
4292.51
4290.96
4289.45
4287.96
4286.49
4285.03
4283.59
4282.17
4280.74
4279.33
4277.91
4276.5
4275.08
4273.65
4272.22
4270.79
4269.35
4267.91
4266.47
4265.05
4263.64
4262.24
4260.86
4259.5
4258.15
4256.81
4255.48
4254.16
4252.84
4251.54
4250.25
4248.97
4247.7
4246.45
4245.21
4243.99
4242.78
4241.58
4240.39
4239.21
4238.04
4236.88
4235.72
4234.57
4233.42
4232.28
4231.14
4230.01
4228.88
4227.75
4226.63
4225.52
4224.41
4223.3
4222.2
4221.12
4220.04
4218.97
4217.91
4216.88
4215.86
4214.87
4213.91
4212.99
4212.12
4211.31
4210.59
4210
4209.58
4206.5
4200.76
4195.85
4191.42
4187.43
4183.68
4179.82
4175.37
4169.53
4161.24
4151.7
4141.42
4130.26
4117.18
4106.36
4104.19
4108.88
4113.64
4116.67
4117.92
4118.5
4119.16
4119.46
4119.61
4119.66
4119.65
4119.62
4119.57
4119.54
4119.52
4367.81
4367.75
4367.62
4367.42
4367.17
4366.85
4366.47
4366.03
4365.53
4364.97
4364.34
4363.64
4362.87
4362.03
4361.11
4360.09
4358.99
4357.79
4356.49
4355.09
4353.58
4351.97
4350.26
4348.44
4346.52
4344.5
4342.4
4340.23
4338.02
4335.78
4333.55
4331.33
4329.12
4326.94
4324.77
4322.6
4320.44
4318.27
4316.11
4313.97
4311.87
4309.81
4307.8
4305.85
4303.96
4302.11
4300.32
4298.59
4296.9
4295.27
4293.68
4292.13
4290.62
4289.13
4287.67
4286.23
4284.81
4283.39
4281.99
4280.59
4279.19
4277.8
4276.4
4274.99
4273.57
4272.14
4270.7
4269.25
4267.8
4266.35
4264.91
4263.5
4262.1
4260.72
4259.36
4258.02
4256.68
4255.35
4254.03
4252.71
4251.41
4250.11
4248.83
4247.57
4246.32
4245.09
4243.87
4242.67
4241.48
4240.3
4239.13
4237.97
4236.81
4235.67
4234.52
4233.38
4232.25
4231.12
4230
4228.88
4227.76
4226.65
4225.55
4224.45
4223.37
4222.29
4221.22
4220.16
4219.12
4218.09
4217.09
4216.12
4215.18
4214.28
4213.43
4212.65
4211.94
4211.32
4210.8
4210.36
4206.98
4200.72
4195.02
4189.74
4184.75
4179.83
4174.71
4169.02
4162.32
4154.25
4145.1
4135.09
4124.2
4112.09
4104.42
4103.44
4105.11
4109.7
4113.89
4116.13
4116.66
4117.05
4117.32
4117.5
4117.59
4117.64
4117.65
4117.65
4117.64
4117.64
4366.49
4366.44
4366.34
4366.19
4365.98
4365.72
4365.4
4365.03
4364.6
4364.11
4363.54
4362.91
4362.2
4361.41
4360.53
4359.56
4358.49
4357.32
4356.05
4354.69
4353.22
4351.65
4349.97
4348.17
4346.25
4344.23
4342.11
4339.9
4337.65
4335.38
4333.12
4330.89
4328.69
4326.52
4324.37
4322.21
4320.04
4317.85
4315.66
4313.49
4311.35
4309.27
4307.25
4305.3
4303.4
4301.56
4299.78
4298.06
4296.4
4294.79
4293.24
4291.72
4290.24
4288.79
4287.37
4285.96
4284.57
4283.18
4281.81
4280.43
4279.06
4277.68
4276.3
4274.91
4273.5
4272.08
4270.63
4269.16
4267.69
4266.22
4264.77
4263.34
4261.93
4260.56
4259.21
4257.87
4256.54
4255.22
4253.9
4252.58
4251.27
4249.96
4248.68
4247.42
4246.17
4244.95
4243.74
4242.55
4241.37
4240.2
4239.04
4237.89
4236.74
4235.6
4234.47
4233.34
4232.22
4231.1
4229.98
4228.87
4227.77
4226.67
4225.58
4224.5
4223.42
4222.36
4221.3
4220.27
4219.24
4218.24
4217.27
4216.33
4215.44
4214.59
4213.81
4213.1
4212.47
4211.94
4211.49
4210.94
4207.03
4200.12
4193.77
4187.78
4181.99
4176.2
4170.18
4163.69
4156.46
4148.33
4139.36
4129.65
4119.36
4108.92
4103.22
4102.67
4102.42
4106.16
4111.47
4114.38
4114.82
4115.05
4115.28
4115.46
4115.58
4115.66
4115.71
4115.73
4115.74
4115.75
4365.14
4365.1
4365.03
4364.91
4364.75
4364.55
4364.3
4364
4363.64
4363.22
4362.72
4362.15
4361.5
4360.76
4359.93
4359
4357.97
4356.86
4355.64
4354.33
4352.92
4351.4
4349.76
4347.99
4346.09
4344.05
4341.89
4339.62
4337.3
4334.96
4332.65
4330.41
4328.22
4326.09
4323.97
4321.84
4319.67
4317.44
4315.19
4312.96
4310.78
4308.67
4306.64
4304.68
4302.79
4300.96
4299.19
4297.48
4295.85
4294.27
4292.75
4291.27
4289.84
4288.43
4287.04
4285.67
4284.32
4282.97
4281.62
4280.27
4278.93
4277.58
4276.22
4274.85
4273.45
4272.03
4270.57
4269.08
4267.58
4266.07
4264.59
4263.15
4261.74
4260.38
4259.04
4257.72
4256.4
4255.08
4253.76
4252.43
4251.11
4249.8
4248.51
4247.24
4246
4244.79
4243.59
4242.41
4241.24
4240.09
4238.94
4237.8
4236.67
4235.54
4234.41
4233.29
4232.18
4231.07
4229.96
4228.86
4227.77
4226.68
4225.6
4224.53
4223.47
4222.42
4221.38
4220.35
4219.35
4218.37
4217.42
4216.51
4215.65
4214.85
4214.11
4213.46
4212.91
4212.46
4212.12
4211.27
4206.37
4198.96
4192.15
4185.63
4179.22
4172.78
4166.13
4159.1
4151.51
4143.27
4134.35
4124.78
4114.69
4105.44
4101.89
4101.88
4101.71
4104.35
4109.29
4111.91
4112.86
4113.07
4113.29
4113.47
4113.62
4113.72
4113.79
4113.83
4113.85
4113.86
4363.74
4363.71
4363.66
4363.59
4363.49
4363.35
4363.17
4362.94
4362.66
4362.31
4361.88
4361.38
4360.78
4360.09
4359.31
4358.43
4357.47
4356.42
4355.28
4354.04
4352.7
4351.24
4349.66
4347.94
4346.05
4343.99
4341.76
4339.4
4336.96
4334.52
4332.13
4329.86
4327.71
4325.64
4323.59
4321.51
4319.34
4317.06
4314.72
4312.38
4310.13
4307.99
4305.96
4304
4302.11
4300.28
4298.52
4296.84
4295.23
4293.69
4292.22
4290.79
4289.4
4288.04
4286.7
4285.38
4284.06
4282.74
4281.43
4280.12
4278.8
4277.48
4276.15
4274.81
4273.43
4272.02
4270.54
4269.02
4267.46
4265.91
4264.38
4262.91
4261.51
4260.17
4258.86
4257.57
4256.26
4254.95
4253.62
4252.29
4250.95
4249.62
4248.31
4247.05
4245.81
4244.61
4243.43
4242.26
4241.11
4239.97
4238.84
4237.71
4236.59
4235.47
4234.35
4233.24
4232.14
4231.03
4229.94
4228.85
4227.76
4226.68
4225.61
4224.55
4223.5
4222.46
4221.44
4220.42
4219.43
4218.47
4217.53
4216.64
4215.8
4215.03
4214.33
4213.73
4213.23
4212.86
4212.6
4210.19
4204.1
4197.2
4190.24
4183.36
4176.5
4169.57
4162.46
4155.05
4147.22
4138.88
4129.98
4120.43
4109.91
4102.39
4101.21
4101.26
4101.22
4102.8
4106.94
4109.58
4110.76
4111.07
4111.33
4111.54
4111.69
4111.81
4111.89
4111.94
4111.97
4111.98
4362.27
4362.26
4362.24
4362.21
4362.17
4362.1
4362
4361.85
4361.65
4361.37
4361.02
4360.57
4360.04
4359.41
4358.69
4357.89
4357
4356.03
4354.97
4353.82
4352.57
4351.2
4349.7
4348.04
4346.19
4344.08
4341.77
4339.24
4336.61
4334.03
4331.49
4329.2
4327.11
4325.16
4323.25
4321.27
4319.11
4316.74
4314.23
4311.71
4309.37
4307.21
4305.2
4303.26
4301.38
4299.54
4297.78
4296.11
4294.54
4293.05
4291.63
4290.27
4288.94
4287.64
4286.35
4285.07
4283.8
4282.52
4281.24
4279.96
4278.68
4277.39
4276.1
4274.8
4273.46
4272.06
4270.57
4268.98
4267.35
4265.71
4264.11
4262.62
4261.23
4259.93
4258.67
4257.42
4256.14
4254.83
4253.5
4252.15
4250.77
4249.41
4248.09
4246.81
4245.59
4244.4
4243.24
4242.1
4240.97
4239.84
4238.72
4237.61
4236.5
4235.39
4234.29
4233.19
4232.09
4231
4229.91
4228.82
4227.75
4226.68
4225.62
4224.57
4223.53
4222.5
4221.48
4220.47
4219.49
4218.53
4217.6
4216.72
4215.89
4215.14
4214.47
4213.89
4213.43
4213.1
4212.88
4209.52
4202.64
4195.49
4188.27
4181.06
4173.84
4166.55
4159.1
4151.42
4143.43
4135.06
4126.28
4117.03
4107.2
4101.3
4100.69
4100.72
4100.73
4102.04
4105.45
4107.73
4108.7
4109.12
4109.42
4109.65
4109.81
4109.94
4110.02
4110.07
4110.11
4110.12
4360.72
4360.73
4360.74
4360.76
4360.78
4360.79
4360.78
4360.72
4360.6
4360.41
4360.13
4359.75
4359.29
4358.73
4358.1
4357.38
4356.58
4355.7
4354.74
4353.69
4352.54
4351.28
4349.88
4348.33
4346.57
4344.38
4342
4339.18
4336.2
4333.48
4330.59
4328.33
4326.39
4324.64
4322.97
4321.21
4319.11
4316.55
4313.76
4310.86
4308.42
4306.29
4304.35
4302.47
4300.59
4298.73
4296.95
4295.3
4293.77
4292.34
4291
4289.7
4288.45
4287.21
4285.99
4284.77
4283.54
4282.3
4281.06
4279.81
4278.56
4277.31
4276.07
4274.82
4273.54
4272.19
4270.69
4268.99
4267.23
4265.47
4263.75
4262.21
4260.86
4259.64
4258.48
4257.3
4256.04
4254.73
4253.4
4252.02
4250.59
4249.15
4247.8
4246.54
4245.33
4244.17
4243.04
4241.93
4240.82
4239.71
4238.61
4237.51
4236.41
4235.31
4234.22
4233.13
4232.04
4230.95
4229.87
4228.79
4227.72
4226.66
4225.61
4224.57
4223.54
4222.52
4221.51
4220.51
4219.52
4218.55
4217.62
4216.74
4215.91
4215.16
4214.5
4213.94
4213.5
4213.19
4212.99
4209.08
4201.45
4193.86
4186.3
4178.77
4171.25
4163.67
4155.98
4148.11
4140.01
4131.65
4123.03
4114.23
4105.41
4100.65
4100.19
4100.2
4100.24
4100.42
4103.43
4106.14
4106.84
4107.28
4107.59
4107.82
4107.98
4108.1
4108.18
4108.23
4108.26
4108.27
4359.08
4359.1
4359.15
4359.22
4359.31
4359.41
4359.5
4359.55
4359.53
4359.42
4359.22
4358.93
4358.55
4358.09
4357.54
4356.92
4356.22
4355.44
4354.59
4353.65
4352.62
4351.48
4350.22
4348.83
4347.37
4345.51
4343.08
4338.88
4334.91
4331.84
4329.06
4327.12
4325.48
4324.06
4322.77
4321.48
4319.78
4316.67
4312.66
4309.51
4307.17
4305.19
4303.44
4301.67
4299.79
4297.85
4295.99
4294.35
4292.89
4291.56
4290.3
4289.11
4287.94
4286.78
4285.63
4284.46
4283.28
4282.09
4280.88
4279.66
4278.44
4277.23
4276.04
4274.87
4273.7
4272.47
4271.01
4269.07
4267.11
4265.2
4263.2
4261.6
4260.35
4259.29
4258.3
4257.26
4255.98
4254.65
4253.36
4251.94
4250.43
4248.81
4247.44
4246.19
4245.02
4243.92
4242.83
4241.75
4240.66
4239.58
4238.49
4237.4
4236.32
4235.23
4234.15
4233.07
4231.99
4230.91
4229.83
4228.75
4227.69
4226.64
4225.6
4224.57
4223.55
4222.54
4221.53
4220.52
4219.52
4218.54
4217.6
4216.7
4215.86
4215.09
4214.42
4213.87
4213.45
4213.17
4212.95
4208.55
4200.24
4192.18
4184.29
4176.48
4168.71
4160.91
4153.04
4145.03
4136.86
4128.5
4119.97
4111.45
4103.53
4099.82
4099.6
4099.64
4099.72
4099.88
4102.37
4104.76
4105.21
4105.57
4105.85
4106.05
4106.2
4106.3
4106.36
4106.41
4106.43
4106.44
4357.32
4357.36
4357.44
4357.57
4357.74
4357.94
4358.15
4358.32
4358.42
4358.42
4358.33
4358.14
4357.86
4357.49
4357.04
4356.52
4355.92
4355.25
4354.51
4353.69
4352.8
4351.82
4350.67
4349.56
4348.14
4344.79
4341.01
4337.04
4333.65
4330.5
4327.57
4325.57
4324.35
4323.33
4322.59
4321.9
4319.62
4315.72
4311.55
4307.85
4305.52
4303.85
4302.56
4300.97
4299.05
4296.87
4294.83
4293.22
4291.89
4290.69
4289.56
4288.48
4287.41
4286.35
4285.27
4284.17
4283.05
4281.89
4280.71
4279.51
4278.31
4277.12
4275.98
4274.91
4273.92
4272.99
4271.97
4269.36
4266.26
4263.84
4261.99
4260.66
4259.66
4258.88
4258.19
4257.53
4255.97
4254.36
4253.56
4252.01
4249.77
4247.97
4246.96
4245.77
4244.66
4243.64
4242.62
4241.57
4240.51
4239.44
4238.37
4237.3
4236.22
4235.15
4234.08
4233.01
4231.93
4230.86
4229.78
4228.71
4227.65
4226.6
4225.57
4224.56
4223.55
4222.55
4221.55
4220.53
4219.51
4218.5
4217.53
4216.61
4215.73
4214.93
4214.23
4213.67
4213.25
4212.99
4212.7
4207.69
4198.78
4190.35
4182.18
4174.16
4166.19
4158.23
4150.22
4142.12
4133.9
4125.51
4116.92
4108.05
4100.97
4098.81
4098.94
4099.03
4099.16
4099.35
4101.51
4103.35
4103.66
4103.95
4104.17
4104.34
4104.46
4104.53
4104.58
4104.6
4104.62
4104.62
4355.44
4355.49
4355.6
4355.78
4356.03
4356.36
4356.73
4357.06
4357.31
4357.45
4357.48
4357.4
4357.22
4356.95
4356.6
4356.18
4355.69
4355.13
4354.5
4353.8
4353.08
4352.3
4351.31
4348.38
4345.07
4341.03
4337.5
4334.22
4331.26
4328.53
4325.92
4324.28
4322.95
4322.31
4321.95
4321.57
4318.85
4314.18
4309.79
4305.84
4302.83
4301.96
4301.52
4300.3
4298.13
4295.34
4293.15
4291.82
4290.74
4289.74
4288.78
4287.83
4286.88
4285.93
4284.94
4283.92
4282.84
4281.72
4280.56
4279.37
4278.16
4276.98
4275.86
4274.86
4274.09
4273.47
4271.79
4268.63
4265.66
4263.1
4260.76
4259.24
4258.74
4258.37
4257.84
4257.19
4255.64
4253.71
4252.5
4251.2
4249.51
4247.93
4246.34
4244.95
4244.18
4243.37
4242.42
4241.42
4240.37
4239.31
4238.25
4237.19
4236.13
4235.07
4234.01
4232.95
4231.88
4230.8
4229.73
4228.65
4227.59
4226.55
4225.53
4224.53
4223.55
4222.57
4221.58
4220.54
4219.48
4218.42
4217.43
4216.46
4215.53
4214.66
4213.91
4213.31
4212.88
4212.62
4212.27
4206.15
4196.85
4188.25
4179.94
4171.77
4163.68
4155.6
4147.5
4139.34
4131.09
4122.72
4114.13
4105.17
4099.16
4098.12
4098.25
4098.38
4098.55
4098.71
4100.22
4101.89
4102.14
4102.38
4102.56
4102.68
4102.76
4102.79
4102.81
4102.81
4102.81
4102.8
4353.41
4353.47
4353.59
4353.8
4354.13
4354.61
4355.22
4355.79
4356.24
4356.54
4356.7
4356.73
4356.65
4356.48
4356.23
4355.91
4355.52
4355.08
4354.56
4353.94
4353.42
4352.25
4348.71
4343.88
4340.13
4336.74
4333.75
4331.07
4328.65
4326.43
4324.42
4322.87
4321.68
4321.08
4320.91
4320.67
4317.55
4312.38
4307.58
4302.71
4299.58
4300.29
4300.5
4298.88
4295.17
4291.8
4290.88
4290.24
4289.52
4288.76
4287.98
4287.18
4286.37
4285.53
4284.65
4283.7
4282.68
4281.59
4280.44
4279.23
4277.99
4276.77
4275.61
4274.59
4273.85
4273.35
4271.33
4267.81
4264.61
4261.71
4258.96
4257.53
4257.57
4257.72
4257.23
4256.05
4254.04
4252.11
4251.1
4250.2
4248.98
4247.88
4246.25
4244.79
4244.06
4243.24
4242.28
4241.3
4240.25
4239.17
4238.12
4237.09
4236.04
4234.99
4233.95
4232.9
4231.83
4230.76
4229.67
4228.58
4227.5
4226.47
4225.47
4224.49
4223.54
4222.6
4221.65
4220.58
4219.43
4218.29
4217.28
4216.28
4215.26
4214.28
4213.44
4212.78
4212.32
4212.06
4209.72
4202.49
4194.22
4185.85
4177.55
4169.32
4161.14
4152.98
4144.83
4136.65
4128.42
4120.13
4111.72
4103.09
4097.9
4097.33
4097.51
4097.71
4097.94
4098.21
4098.87
4100.22
4100.62
4100.87
4101.01
4101.08
4101.09
4101.08
4101.05
4101.02
4101
4100.99
4351.23
4351.28
4351.39
4351.59
4351.97
4352.62
4353.64
4354.58
4355.28
4355.75
4356.03
4356.16
4356.16
4356.08
4355.92
4355.69
4355.41
4355.09
4354.72
4354.03
4351.06
4347.41
4342.56
4338.27
4334.85
4332.04
4329.69
4327.66
4325.84
4324.11
4322.45
4321.01
4320.43
4319.27
4319.55
4319.59
4315.62
4310.2
4305.44
4300.87
4298.57
4299.16
4299.52
4296.7
4292.01
4289.04
4289.08
4288.82
4288.35
4287.8
4287.19
4286.55
4285.89
4285.18
4284.42
4283.57
4282.59
4281.53
4280.38
4279.12
4277.8
4276.49
4275.24
4274.03
4273.17
4272.64
4270.43
4266.65
4263.27
4260.17
4257.19
4255.63
4255.75
4255.59
4255.15
4253.85
4252.41
4251.31
4250.48
4249.63
4248.73
4248.11
4246.88
4245.39
4244.47
4243.28
4242.11
4241.21
4240.08
4238.93
4237.97
4237
4235.92
4234.91
4233.9
4232.86
4231.8
4230.72
4229.62
4228.49
4227.37
4226.38
4225.37
4224.42
4223.53
4222.65
4221.84
4220.77
4219.32
4218.03
4217.14
4216.12
4214.95
4213.75
4212.8
4212.04
4211.52
4211.24
4207.59
4199.86
4191.69
4183.39
4175.08
4166.81
4158.58
4150.37
4142.18
4134
4125.83
4117.66
4109.52
4101.35
4096.82
4096.53
4096.72
4096.98
4097.3
4097.66
4098.11
4098.86
4099.26
4099.46
4099.53
4099.52
4099.46
4099.38
4099.3
4099.23
4099.18
4099.16
4348.9
4348.92
4348.97
4349.1
4349.41
4350.16
4352.08
4353.55
4354.51
4355.13
4355.5
4355.69
4355.77
4355.75
4355.67
4355.53
4355.33
4355.15
4352.51
4349.27
4344.53
4340.26
4335.84
4331.81
4328.95
4326.89
4325.31
4324.04
4322.96
4321.7
4320.27
4318.83
4317.74
4316.3
4316.56
4315.88
4311.73
4307.35
4303.1
4299.01
4297.01
4297.24
4296.76
4293.87
4290.03
4287.84
4287.78
4287.6
4287.28
4286.88
4286.43
4285.95
4285.44
4284.89
4284.28
4283.55
4282.59
4281.54
4280.45
4279.07
4277.52
4276.15
4274.82
4273.14
4271.94
4271.3
4268.98
4265.09
4261.65
4258.5
4255.49
4253.96
4253.89
4253.36
4253.18
4252.76
4251.78
4251.09
4250.45
4249.56
4248.7
4247.93
4247.24
4246.32
4244.62
4242.84
4241.49
4240.37
4239.22
4238.09
4237.06
4236.04
4234.99
4233.97
4232.97
4231.95
4230.92
4229.87
4228.71
4227.77
4227.02