/*--------------------------------*- C++ -*----------------------------------*\
| =========                 |                                                 |
| \\      /  F ield         | OpenFOAM: The Open Source CFD Toolbox           |
|  \\    /   O peration     | Version:  2.1.0                                 |
|   \\  /    A nd           | Web:      www.OpenFOAM.org                      |
|    \\/     M anipulation  |                                                 |
\*---------------------------------------------------------------------------*/
FoamFile
{
    version     2.0;
    format      ascii;
    class       volScalarField;
    location    "40150";
    object      kr_o;
}
// * * * * * * * * * * * * * * * * * * * * * * * * * * * * * * * * * * * * * //

dimensions      [0 0 0 0 0 0 0];

internalField   nonuniform List<scalar> 
15000
(
1.03875e-13
0
2.86915e-07
1.541e-05
0.000152128
0.000635864
0.00161174
0.00304846
0.00484234
0.00690095
0.00915901
0.0115711
0.0141034
0.0167291
0.0194253
0.0221721
0.0249519
0.0277494
0.0305511
0.0333457
0.0361236
0.0388771
0.0416003
0.0442889
0.0469401
0.0495521
0.0521243
0.054657
0.0571514
0.0596093
0.062033
0.0644258
0.0667904
0.069129
0.0714439
0.0737374
0.0760113
0.0782679
0.0805092
0.082737
0.0849533
0.0871601
0.0893591
0.091552
0.09374
0.0959246
0.0981067
0.100287
0.102466
0.104644
0.10682
0.108994
0.111164
0.11333
0.11549
0.117643
0.119786
0.121919
0.124039
0.126144
0.128233
0.130306
0.13236
0.134396
0.136412
0.138409
0.140385
0.142343
0.144281
0.1462
0.148102
0.149987
0.151855
0.153708
0.155546
0.157371
0.159184
0.160984
0.162773
0.164551
0.16632
0.16808
0.169831
0.171574
0.173308
0.175034
0.176752
0.178461
0.180162
0.181854
0.183536
0.185209
0.186871
0.188522
0.19016
0.191785
0.193394
0.194987
0.196562
0.198118
0.199652
0.201164
0.20265
0.20411
0.205542
0.206943
0.208312
0.209647
0.210947
0.212211
0.213439
0.21463
0.215785
0.216904
0.217989
0.219041
0.220062
0.221052
0.222013
0.222951
0.223873
0.224792
0.225727
0.226705
0.227758
0.228921
0.23021
0.231589
0.23292
0.234021
0.234852
0.235447
0.23586
0.236274
0.236694
0.237124
0.23757
0.238035
0.238523
0.239039
0.239591
0.240194
0.240867
0.241638
0.242549
0.243663
0.245091
0.247056
0.250134
0.257038
0
0
2.01853e-06
4.08683e-05
0.000266595
0.000891601
0.0019977
0.00352377
0.00537184
0.00746223
0.00973906
0.0121626
0.0147023
0.0173332
0.0200336
0.022784
0.0255673
0.0283683
0.0311736
0.0339718
0.0367533
0.0395105
0.0422374
0.0449296
0.0475842
0.0501993
0.0527743
0.0553094
0.0578059
0.0602655
0.062691
0.0650852
0.0674509
0.0697902
0.0721054
0.0743985
0.0766715
0.0789265
0.0811655
0.0833905
0.0856034
0.0878064
0.0900011
0.0921894
0.0943727
0.0965525
0.09873
0.100906
0.103081
0.105255
0.107428
0.109599
0.111768
0.113932
0.116091
0.118244
0.120388
0.122521
0.124642
0.126749
0.128841
0.130917
0.132975
0.135014
0.137034
0.139034
0.141014
0.142975
0.144917
0.14684
0.148744
0.150632
0.152503
0.154359
0.1562
0.158028
0.159843
0.161646
0.163438
0.16522
0.166992
0.168756
0.170511
0.172258
0.173996
0.175727
0.177451
0.179168
0.180876
0.182576
0.184268
0.185951
0.187625
0.189289
0.190942
0.192584
0.194212
0.195826
0.197425
0.199007
0.200571
0.202117
0.203643
0.205148
0.20663
0.208089
0.209525
0.210937
0.212327
0.213695
0.215044
0.216375
0.217693
0.219
0.220302
0.221602
0.222904
0.224208
0.225518
0.226838
0.228184
0.22959
0.231114
0.232844
0.234897
0.237412
0.240495
0.244078
0.247611
0.250203
0.251893
0.252877
0.25335
0.25363
0.253728
0.25368
0.253564
0.253413
0.253203
0.252892
0.252462
0.251935
0.251366
0.250829
0.250407
0.250196
0.250319
0.251002
0.252815
0.258458
2.68902e-07
1.91727e-06
2.00323e-05
0.000137178
0.000534575
0.0013595
0.00261943
0.00423983
0.00614008
0.00825838
0.0105502
0.0129821
0.0155269
0.0181613
0.0208647
0.0236181
0.0264046
0.0292089
0.0320178
0.0348195
0.0376045
0.0403648
0.0430945
0.045789
0.0484451
0.0510612
0.0536364
0.0561713
0.0586669
0.0611254
0.0635493
0.0659416
0.0683047
0.0706405
0.0729513
0.075239
0.0775057
0.0797534
0.0819842
0.0842003
0.0864038
0.0885968
0.0907814
0.0929594
0.0951326
0.0973025
0.0994706
0.101638
0.103805
0.105972
0.108139
0.110305
0.11247
0.114632
0.11679
0.118942
0.121087
0.123222
0.125345
0.127455
0.12955
0.131629
0.133691
0.135734
0.137757
0.139761
0.141745
0.143709
0.145653
0.147578
0.149486
0.151375
0.153248
0.155106
0.156949
0.158778
0.160594
0.162399
0.164193
0.165977
0.167752
0.169519
0.171277
0.173027
0.17477
0.176506
0.178235
0.179958
0.181673
0.183382
0.185083
0.186777
0.188464
0.190143
0.191813
0.193473
0.195122
0.196761
0.198387
0.200001
0.201602
0.203189
0.204762
0.20632
0.207865
0.209395
0.210914
0.212422
0.213924
0.215424
0.216926
0.218439
0.219972
0.221535
0.223142
0.224807
0.226547
0.228371
0.230283
0.232271
0.234349
0.236577
0.239077
0.242042
0.245744
0.250532
0.25675
0.264455
0.272118
0.276563
0.27909
0.280411
0.280929
0.280849
0.280161
0.278947
0.277578
0.276171
0.27462
0.272763
0.270525
0.267987
0.265293
0.262621
0.26014
0.257999
0.256343
0.255393
0.255704
0.259962
1.43942e-05
3.88471e-05
0.000133911
0.000425643
0.00105996
0.00209449
0.00349469
0.00519561
0.00713871
0.00927905
0.0115822
0.0140201
0.0165686
0.0192061
0.0219124
0.0246691
0.0274593
0.0302676
0.0330806
0.0358864
0.0386751
0.0414387
0.0441709
0.046867
0.0495237
0.0521392
0.0547129
0.0572452
0.0597375
0.062192
0.0646115
0.0669984
0.069355
0.0716832
0.073985
0.0762625
0.0785176
0.0807525
0.0829696
0.085171
0.0873592
0.0895364
0.0917049
0.0938669
0.0960242
0.0981789
0.100333
0.102487
0.104642
0.106798
0.108956
0.111115
0.113275
0.115433
0.117589
0.11974
0.121886
0.124022
0.126148
0.128262
0.130361
0.132444
0.13451
0.136557
0.138584
0.140591
0.142578
0.144545
0.146491
0.148419
0.150327
0.152217
0.154091
0.155949
0.157793
0.159622
0.161439
0.163245
0.16504
0.166825
0.168601
0.170369
0.172129
0.173882
0.175628
0.177369
0.179103
0.180832
0.182555
0.184273
0.185984
0.18769
0.189391
0.191086
0.192774
0.194455
0.196129
0.197795
0.199454
0.201104
0.202746
0.204381
0.206009
0.20763
0.209247
0.210862
0.212479
0.214102
0.215739
0.217397
0.219089
0.22083
0.22264
0.224545
0.226581
0.228796
0.231248
0.233985
0.236992
0.240153
0.24342
0.246879
0.250745
0.255363
0.261224
0.268998
0.279478
0.293418
0.307123
0.311731
0.314167
0.315451
0.315992
0.315477
0.313684
0.310517
0.307327
0.304384
0.301297
0.29758
0.29299
0.287755
0.282184
0.276634
0.27143
0.266815
0.262965
0.260093
0.258724
0.261521
0.000141029
0.000251153
0.00051469
0.00104237
0.00190763
0.00311293
0.00461903
0.00637955
0.0083545
0.0105115
0.0128236
0.0152668
0.0178195
0.0204608
0.0231713
0.0259328
0.0287283
0.0315423
0.034361
0.0371723
0.039966
0.0427337
0.0454689
0.0481665
0.0508232
0.0534372
0.0560078
0.0585357
0.0610225
0.0634705
0.0658825
0.0682605
0.0706068
0.0729231
0.0752114
0.0774737
0.079712
0.0819287
0.0841262
0.086307
0.0884735
0.0906286
0.0927747
0.0949143
0.0970499
0.0991837
0.101318
0.103454
0.105592
0.107735
0.109881
0.11203
0.114182
0.116336
0.118489
0.120639
0.122785
0.124924
0.127054
0.129171
0.131275
0.133364
0.135434
0.137486
0.139518
0.141528
0.143518
0.145487
0.147435
0.149363
0.151272
0.153162
0.155036
0.156893
0.158736
0.160565
0.162381
0.164186
0.165981
0.167766
0.169542
0.17131
0.173071
0.174826
0.176575
0.178319
0.180059
0.181794
0.183525
0.185251
0.186974
0.188693
0.190408
0.19212
0.193829
0.195533
0.197235
0.198932
0.200626
0.202318
0.204007
0.205696
0.207386
0.209079
0.210778
0.212489
0.214219
0.215975
0.217768
0.219615
0.221535
0.223557
0.22572
0.228081
0.230728
0.233792
0.237445
0.241842
0.246891
0.251995
0.256945
0.261906
0.267257
0.273537
0.281483
0.292107
0.306757
0.327915
0.345813
0.346643
0.348725
0.349695
0.350357
0.349945
0.347716
0.342109
0.337172
0.333459
0.329737
0.324839
0.318036
0.309933
0.301119
0.292159
0.283706
0.276196
0.269863
0.264895
0.261765
0.2631
0.000588394
0.00083652
0.00129857
0.00203674
0.00307403
0.00439634
0.00597379
0.00777532
0.0097734
0.0119438
0.0142643
0.0167141
0.0192727
0.0219204
0.0246379
0.0274072
0.0302109
0.0330335
0.0358608
0.0386802
0.0414812
0.044255
0.0469945
0.0496945
0.0523514
0.0549634
0.0575299
0.0600519
0.0625311
0.0649702
0.0673716
0.0697373
0.0720694
0.0743695
0.0766397
0.0788818
0.081098
0.0832907
0.0854624
0.0876159
0.0897541
0.0918801
0.0939968
0.0961072
0.0982143
0.100321
0.102429
0.104542
0.10666
0.108784
0.110914
0.113051
0.115194
0.117341
0.11949
0.12164
0.123787
0.125929
0.128063
0.130187
0.132297
0.134392
0.136469
0.138526
0.140562
0.142577
0.14457
0.146541
0.14849
0.150418
0.152326
0.154215
0.156087
0.157944
0.159785
0.161612
0.163426
0.165229
0.167022
0.168805
0.17058
0.172347
0.174108
0.175864
0.177614
0.179361
0.181105
0.182846
0.184585
0.186321
0.188056
0.189788
0.19152
0.193251
0.194981
0.196712
0.198443
0.200175
0.201908
0.203645
0.205386
0.207134
0.208892
0.210665
0.212457
0.214276
0.216132
0.218038
0.220012
0.222078
0.224268
0.226632
0.229243
0.232214
0.235735
0.240112
0.245793
0.253207
0.262055
0.269963
0.276757
0.282992
0.289362
0.296626
0.305689
0.317729
0.334349
0.360478
0.369426
0.393299
0.42306
0.471455
0.492993
0.466337
0.421007
0.356118
0.352588
0.351215
0.349675
0.346494
0.339675
0.330351
0.319521
0.307475
0.295762
0.285323
0.276518
0.269503
0.264685
0.264655
0.00149075
0.00186925
0.00248765
0.0033698
0.00451636
0.00591204
0.00753564
0.00936574
0.011382
0.0135652
0.015896
0.0183553
0.0209237
0.0235819
0.0263109
0.0290924
0.0319091
0.0347448
0.037585
0.0404167
0.0432287
0.0460117
0.0487582
0.0514625
0.0541208
0.056731
0.059293
0.0618077
0.0642777
0.0667054
0.0690931
0.0714429
0.0737567
0.0760364
0.0782837
0.0805005
0.0826889
0.0848513
0.0869905
0.0891096
0.0912118
0.0933009
0.0953804
0.0974538
0.0995249
0.101597
0.103673
0.105756
0.107848
0.109948
0.11206
0.114181
0.116312
0.118451
0.120597
0.122745
0.124894
0.127041
0.129181
0.131312
0.13343
0.135533
0.137618
0.139683
0.141725
0.143744
0.14574
0.147713
0.149662
0.15159
0.153496
0.155384
0.157254
0.159107
0.160945
0.162769
0.164581
0.16638
0.168169
0.169949
0.171721
0.173486
0.175245
0.177
0.178751
0.1805
0.182248
0.183995
0.185741
0.187488
0.189235
0.190981
0.192729
0.19448
0.196235
0.197993
0.199757
0.201526
0.203302
0.205087
0.206885
0.208698
0.210531
0.212391
0.214284
0.216222
0.218219
0.220294
0.222472
0.22479
0.227299
0.230079
0.233255
0.237036
0.241788
0.248145
0.257104
0.269764
0.285589
0.296464
0.304325
0.310823
0.317094
0.324038
0.332529
0.34358
0.358508
0.385303
0.447648
0.562109
0.562493
0.5625
0.561822
0.539129
0.531504
0.51301
0.492568
0.477079
0.442249
0.403157
0.34908
0.342258
0.333407
0.319795
0.3057
0.293028
0.282275
0.273581
0.267336
0.266146
0.00281538
0.00328644
0.0040047
0.00497361
0.00618564
0.00762713
0.00928224
0.0111348
0.0131685
0.0153666
0.0177118
0.0201858
0.0227699
0.0254448
0.0281916
0.0309918
0.0338278
0.036683
0.0395424
0.0423924
0.0452211
0.0480184
0.0507761
0.0534881
0.05615
0.0587599
0.0613175
0.0638245
0.0662835
0.0686969
0.0710674
0.0733973
0.0756888
0.0779435
0.0801631
0.0823492
0.0845038
0.0866291
0.0887282
0.0908047
0.0928624
0.0949056
0.0969388
0.0989664
0.100993
0.103022
0.105058
0.107104
0.109162
0.111234
0.113321
0.115423
0.11754
0.11967
0.121811
0.123959
0.126111
0.128263
0.130411
0.132552
0.134682
0.136796
0.138891
0.140965
0.143015
0.14504
0.14704
0.149014
0.150963
0.152889
0.154793
0.156677
0.158544
0.160393
0.162227
0.164047
0.165854
0.167649
0.169433
0.171208
0.172975
0.174735
0.17649
0.178243
0.179993
0.181743
0.183494
0.185245
0.187
0.188756
0.190516
0.192277
0.194043
0.195816
0.197596
0.199385
0.201182
0.202991
0.204813
0.206652
0.20851
0.210393
0.212308
0.214262
0.216266
0.218335
0.220487
0.22275
0.225159
0.227766
0.230651
0.233935
0.23782
0.242657
0.249083
0.258247
0.272058
0.293001
0.321174
0.332628
0.339542
0.344767
0.349608
0.35485
0.361121
0.369128
0.379921
0.406907
0.496069
0.556044
0.562376
0.562498
0.562498
0.562259
0.562047
0.561446
0.560686
0.560178
0.528705
0.514389
0.414993
0.372185
0.336582
0.324137
0.310983
0.298151
0.286606
0.27689
0.269616
0.267543
0.00445753
0.00498791
0.00576614
0.00678682
0.00803987
0.00951317
0.0111938
0.0130682
0.0151224
0.0173408
0.0197071
0.0222034
0.0248111
0.0275111
0.0302844
0.033112
0.0359761
0.0388596
0.0417469
0.0446236
0.047477
0.050296
0.0530717
0.0557969
0.0584668
0.0610791
0.0636337
0.0661325
0.0685782
0.070974
0.0733232
0.0756289
0.0778935
0.0801186
0.0823055
0.0844552
0.0865693
0.08865
0.0907005
0.0927249
0.094728
0.0967149
0.0986911
0.100662
0.102633
0.104609
0.106595
0.108595
0.110611
0.112647
0.114705
0.116783
0.118883
0.121001
0.123136
0.125284
0.127441
0.129601
0.131761
0.133916
0.13606
0.138189
0.140298
0.142384
0.144444
0.146477
0.148481
0.150456
0.152405
0.154328
0.156229
0.158109
0.15997
0.161814
0.163643
0.165457
0.167258
0.169046
0.170824
0.172591
0.174351
0.176105
0.177854
0.179602
0.18135
0.183099
0.184851
0.186608
0.188369
0.190136
0.191909
0.193688
0.195473
0.197269
0.199076
0.200896
0.20273
0.204582
0.206453
0.208348
0.210272
0.212231
0.214233
0.21629
0.218414
0.220626
0.222951
0.225424
0.228096
0.231039
0.234367
0.238261
0.243025
0.2492
0.257785
0.270605
0.29073
0.322557
0.368635
0.375622
0.380515
0.383574
0.386036
0.38857
0.391493
0.395073
0.400083
0.431873
0.53062
0.560602
0.56246
0.562499
0.5625
0.562498
0.562495
0.562485
0.562473
0.562469
0.561681
0.561226
0.552346
0.387268
0.337483
0.325939
0.313722
0.301321
0.289647
0.279436
0.271514
0.26884
0.00632123
0.00689017
0.00770662
0.00876182
0.0100453
0.0115462
0.013253
0.0151538
0.0172351
0.0194824
0.0218794
0.0244083
0.0270505
0.0297867
0.0325976
0.0354641
0.0383679
0.0412915
0.0442184
0.0471336
0.0500232
0.0528752
0.0556791
0.0584265
0.0611116
0.0637314
0.0662855
0.0687755
0.0712047
0.0735781
0.0759008
0.0781771
0.0804098
0.0826005
0.0847495
0.0868568
0.0889234
0.0909509
0.0929429
0.094904
0.0968403
0.098758
0.100664
0.102565
0.104468
0.106378
0.108301
0.110243
0.112208
0.114199
0.116219
0.118268
0.120346
0.122451
0.12458
0.126729
0.128892
0.131064
0.133239
0.135411
0.137575
0.139724
0.141852
0.143956
0.14603
0.148072
0.150082
0.152059
0.154006
0.155925
0.15782
0.159694
0.161549
0.163387
0.165209
0.167017
0.16881
0.17059
0.172359
0.174117
0.175866
0.17761
0.179351
0.181092
0.182834
0.184581
0.186333
0.188093
0.189861
0.191638
0.193425
0.195223
0.197028
0.198847
0.200683
0.202537
0.204411
0.206309
0.208234
0.210191
0.212187
0.214229
0.216327
0.218497
0.220755
0.223126
0.225644
0.228356
0.231329
0.234665
0.238521
0.243149
0.248983
0.2568
0.268035
0.28524
0.312426
0.354393
0.409363
0.460065
0.508124
0.547507
0.559992
0.560212
0.550596
0.536635
0.47558
0.512076
0.557738
0.562426
0.562499
0.5625
0.5625
0.5625
0.5625
0.5625
0.5625
0.5625
0.562489
0.562482
0.562242
0.348828
0.337435
0.327004
0.314973
0.303233
0.291743
0.281363
0.27308
0.270049
0.00833621
0.00893277
0.00977797
0.0108619
0.0121746
0.0137059
0.0154452
0.017381
0.0195005
0.0217887
0.0242294
0.0268045
0.0294951
0.0322817
0.0351447
0.0380649
0.0410235
0.0440027
0.0469854
0.0499556
0.0528982
0.0557997
0.0586476
0.0614318
0.0641445
0.0667805
0.0693375
0.0718171
0.074225
0.0765692
0.0788579
0.0810978
0.0832928
0.0854438
0.0875498
0.0896089
0.0916202
0.0935849
0.0955064
0.0973904
0.0992444
0.101077
0.102896
0.10471
0.106527
0.108355
0.110199
0.112069
0.113968
0.115902
0.117874
0.119887
0.121939
0.124027
0.126149
0.128299
0.130471
0.132659
0.134854
0.137051
0.139241
0.141418
0.143572
0.1457
0.1478
0.149866
0.151889
0.153867
0.15581
0.157723
0.159609
0.161474
0.16332
0.165151
0.166965
0.168765
0.17055
0.172321
0.174078
0.175824
0.17756
0.179291
0.181019
0.182749
0.184483
0.186224
0.187975
0.189737
0.191512
0.1933
0.195101
0.196918
0.198743
0.200588
0.202455
0.204346
0.206264
0.208212
0.210195
0.21222
0.214294
0.216427
0.218631
0.220925
0.223332
0.225883
0.228622
0.23161
0.234938
0.238739
0.243222
0.248727
0.25584
0.265621
0.280012
0.302336
0.33726
0.388477
0.442385
0.520334
0.559332
0.56247
0.5625
0.562494
0.562095
0.561938
0.562017
0.561086
0.562378
0.562497
0.5625
0.5625
0.5625
0.5625
0.5625
0.5625
0.5625
0.5625
0.5625
0.5625
0.544462
0.348155
0.337736
0.327879
0.316148
0.304543
0.293258
0.282855
0.274395
0.271195
0.0104515
0.0110711
0.0119432
0.0130574
0.0144045
0.0159747
0.0177579
0.0197424
0.021915
0.0242605
0.0267618
0.0294005
0.0321572
0.0350122
0.0379458
0.0409386
0.0439719
0.0470276
0.050088
0.0531365
0.0561568
0.059133
0.0620505
0.0648958
0.067656
0.0703213
0.0728867
0.075354
0.0777325
0.0800361
0.0822791
0.0844727
0.0866224
0.0887284
0.0907867
0.0927919
0.09474
0.0966304
0.0984664
0.100255
0.102007
0.103732
0.105442
0.107147
0.108856
0.110579
0.112324
0.114099
0.115915
0.117776
0.119688
0.121653
0.123671
0.12574
0.127854
0.130006
0.132191
0.134399
0.136622
0.138851
0.141077
0.143291
0.145483
0.147665
0.149814
0.151917
0.153966
0.155957
0.157894
0.159796
0.161669
0.163521
0.165356
0.167176
0.168982
0.170772
0.172545
0.174303
0.176045
0.177773
0.17949
0.181201
0.182909
0.18462
0.186339
0.18807
0.189815
0.191577
0.193356
0.195154
0.19697
0.198806
0.200662
0.202534
0.204434
0.206364
0.208328
0.21033
0.212377
0.214476
0.216636
0.218871
0.221196
0.223633
0.226213
0.228976
0.231977
0.235296
0.239048
0.243404
0.24863
0.255166
0.263776
0.275856
0.29394
0.322174
0.365629
0.425299
0.466744
0.548976
0.562437
0.5625
0.5625
0.5625
0.562498
0.562496
0.562495
0.562481
0.562498
0.5625
0.5625
0.5625
0.5625
0.5625
0.5625
0.5625
0.5625
0.5625
0.5625
0.562137
0.48423
0.348846
0.338395
0.328682
0.317218
0.305717
0.294431
0.284062
0.275536
0.272302
0.0126276
0.0132698
0.0141718
0.0153233
0.0167153
0.0183383
0.0201819
0.0222338
0.0244798
0.0269037
0.0294874
0.0322117
0.0350568
0.0380029
0.0410303
0.0441201
0.047254
0.0504141
0.0535832
0.0567439
0.0598787
0.0629699
0.0659986
0.0689439
0.0717847
0.074503
0.0770877
0.0795399
0.0818749
0.0841177
0.0862947
0.0884257
0.0905194
0.0925746
0.094582
0.0965292
0.0984061
0.100208
0.101939
0.103608
0.105228
0.106815
0.108385
0.10995
0.111521
0.113109
0.114723
0.116377
0.118082
0.119847
0.12168
0.123585
0.12556
0.127602
0.129706
0.131862
0.134063
0.136299
0.138558
0.140831
0.143107
0.145374
0.147648
0.149903
0.152117
0.154275
0.156361
0.158368
0.160296
0.162181
0.164036
0.16587
0.167691
0.169499
0.171295
0.173076
0.174838
0.176581
0.178304
0.18001
0.181701
0.183383
0.185062
0.186747
0.188443
0.190157
0.191891
0.193649
0.195431
0.197238
0.199069
0.200926
0.202809
0.204709
0.206645
0.208619
0.210637
0.212703
0.214825
0.217012
0.219278
0.221637
0.22411
0.226725
0.22952
0.232545
0.235871
0.239594
0.243857
0.248869
0.254961
0.262681
0.273002
0.287722
0.310049
0.344984
0.397814
0.466464
0.486044
0.558609
0.562466
0.5625
0.5625
0.5625
0.5625
0.5625
0.5625
0.5625
0.5625
0.5625
0.5625
0.5625
0.5625
0.5625
0.5625
0.5625
0.5625
0.5625
0.56249
0.560167
0.458229
0.349673
0.33912
0.329415
0.318119
0.30675
0.295522
0.285131
0.276565
0.273392
0.0148313
0.0154987
0.0164375
0.0176377
0.0190903
0.0207856
0.0227121
0.0248564
0.0272024
0.029732
0.0324257
0.0352632
0.0382245
0.0412898
0.0444405
0.0476587
0.0509276
0.054231
0.0575526
0.0608759
0.0641834
0.0674535
0.07066
0.0737714
0.0768373
0.0797488
0.0823755
0.0848056
0.0870651
0.089201
0.0912659
0.0932969
0.0953107
0.0973034
0.0992552
0.101139
0.102932
0.104622
0.106211
0.107713
0.109148
0.110541
0.111916
0.113287
0.114668
0.116069
0.117504
0.118988
0.120539
0.122171
0.123895
0.125715
0.127632
0.129638
0.131728
0.133889
0.136111
0.138382
0.140689
0.143021
0.145365
0.147726
0.150106
0.152473
0.154803
0.157065
0.159225
0.16126
0.163172
0.165028
0.166849
0.168655
0.170454
0.172249
0.174035
0.175806
0.177557
0.179282
0.180981
0.182656
0.184309
0.185949
0.187585
0.189228
0.190888
0.192573
0.194289
0.196037
0.197819
0.199634
0.201482
0.203361
0.205274
0.207215
0.209192
0.211219
0.2133
0.215445
0.217662
0.219962
0.222363
0.224883
0.22755
0.230398
0.233472
0.236834
0.240565
0.244782
0.249651
0.255422
0.262491
0.271534
0.283775
0.301478
0.328565
0.370639
0.432
0.504662
0.55235
0.562143
0.562497
0.5625
0.5625
0.5625
0.5625
0.5625
0.5625
0.5625
0.5625
0.5625
0.5625
0.5625
0.5625
0.5625
0.5625
0.5625
0.5625
0.5625
0.562478
0.559582
0.424979
0.350145
0.339685
0.330028
0.318898
0.307658
0.296508
0.286146
0.277583
0.274491
0.0170336
0.0177309
0.0187169
0.0199818
0.0215164
0.0233102
0.02535
0.0276196
0.0301001
0.0327704
0.0356089
0.0385941
0.0417061
0.0449262
0.0482376
0.0516255
0.0550762
0.0585771
0.0621162
0.0656801
0.0692504
0.0728014
0.0764295
0.0802656
0.0841202
0.0878392
0.0911399
0.0935097
0.0955486
0.097363
0.0990906
0.100822
0.102602
0.104424
0.106246
0.107998
0.109622
0.111088
0.112393
0.11356
0.114629
0.115651
0.116664
0.11769
0.118742
0.119828
0.120964
0.12217
0.123473
0.124892
0.126444
0.128132
0.129956
0.131906
0.13397
0.136132
0.138378
0.140693
0.143062
0.145472
0.14791
0.15042
0.152963
0.155524
0.158072
0.160557
0.162895
0.165002
0.166885
0.168683
0.170441
0.172193
0.173955
0.175729
0.177504
0.179266
0.181002
0.182703
0.184367
0.185994
0.187586
0.189154
0.190713
0.192281
0.193875
0.195508
0.197186
0.198913
0.200687
0.202507
0.20437
0.206276
0.208224
0.210217
0.212242
0.214334
0.216499
0.218748
0.221094
0.223551
0.22614
0.228885
0.231818
0.23498
0.238423
0.242215
0.246447
0.251251
0.256815
0.263429
0.271565
0.282055
0.296435
0.317514
0.349893
0.399134
0.465884
0.530819
0.559843
0.562401
0.562499
0.5625
0.5625
0.5625
0.5625
0.5625
0.5625
0.5625
0.5625
0.5625
0.5625
0.5625
0.5625
0.5625
0.5625
0.5625
0.5625
0.5625
0.562465
0.559539
0.363818
0.349713
0.339992
0.330539
0.319614
0.308507
0.297446
0.287133
0.278607
0.275612
0.0192078
0.0199419
0.020989
0.0223398
0.023985
0.0259126
0.0281063
0.0305456
0.0332059
0.0360619
0.039089
0.0422649
0.0455704
0.0489899
0.0525106
0.0561233
0.059821
0.0635995
0.0674545
0.0713772
0.0753531
0.0795928
0.0843552
0.0895312
0.0951849
0.100948
0.106362
0.10919
0.110749
0.111743
0.112613
0.1136
0.114835
0.116324
0.11796
0.119554
0.120922
0.121985
0.122733
0.123203
0.123486
0.123713
0.123974
0.124306
0.124714
0.125196
0.125764
0.126449
0.12729
0.128321
0.129563
0.131018
0.132677
0.134522
0.136531
0.13868
0.140947
0.143312
0.145758
0.148271
0.150853
0.153559
0.156364
0.159269
0.162258
0.165259
0.168064
0.170354
0.17218
0.173852
0.175472
0.177107
0.178794
0.180534
0.1823
0.184057
0.185778
0.187448
0.189059
0.190606
0.192092
0.193528
0.194939
0.19636
0.197821
0.199346
0.200945
0.202621
0.204369
0.206184
0.208061
0.209996
0.211988
0.21404
0.216137
0.218314
0.220595
0.222992
0.225521
0.228201
0.231054
0.23411
0.237405
0.240982
0.244896
0.249219
0.254045
0.259514
0.265836
0.273346
0.282615
0.294682
0.311486
0.336477
0.374778
0.430654
0.497418
0.546628
0.561868
0.562489
0.5625
0.5625
0.5625
0.5625
0.5625
0.5625
0.5625
0.5625
0.5625
0.5625
0.5625
0.5625
0.5625
0.5625
0.5625
0.5625
0.5625
0.562499
0.562421
0.55501
0.362828
0.349935
0.340498
0.331134
0.320363
0.309366
0.298385
0.288124
0.279644
0.276758
0.0213352
0.0221186
0.0232466
0.0247091
0.0264946
0.0285868
0.0309792
0.0336746
0.0365772
0.0396771
0.042948
0.0463678
0.0499205
0.0535963
0.0573907
0.0613046
0.0653445
0.0695187
0.0738354
0.0783036
0.0830906
0.0889688
0.0959663
0.104188
0.113945
0.12364
0.134142
0.137887
0.138428
0.137241
0.135955
0.135163
0.135226
0.136214
0.138052
0.140924
0.142074
0.142481
0.142126
0.141071
0.13953
0.13793
0.136534
0.135405
0.1345
0.13377
0.133203
0.132842
0.132764
0.133032
0.133675
0.134686
0.136034
0.137677
0.139571
0.141673
0.143947
0.146364
0.148904
0.15155
0.154367
0.157364
0.160579
0.164067
0.167889
0.172009
0.175973
0.178603
0.180309
0.181675
0.18297
0.18434
0.185868
0.187563
0.189353
0.191139
0.192864
0.194505
0.196046
0.197473
0.198775
0.199962
0.201076
0.202197
0.203388
0.204692
0.206128
0.207696
0.209384
0.211177
0.213061
0.215029
0.217077
0.219209
0.221433
0.223718
0.226152
0.228749
0.231527
0.234507
0.237714
0.24118
0.244942
0.249044
0.25354
0.258496
0.263999
0.270192
0.277307
0.28574
0.296204
0.31004
0.329737
0.359476
0.404458
0.465185
0.52416
0.555117
0.562358
0.562499
0.5625
0.5625
0.5625
0.5625
0.5625
0.5625
0.5625
0.5625
0.5625
0.5625
0.5625
0.5625
0.5625
0.5625
0.5625
0.5625
0.5625
0.562499
0.56227
0.524573
0.363664
0.350735
0.341282
0.331899
0.321215
0.310291
0.299365
0.28914
0.280701
0.277932
0.0234009
0.0242548
0.0254957
0.027114
0.0290948
0.0314152
0.0340528
0.0370082
0.0401751
0.0436082
0.0473121
0.0510447
0.0549123
0.0589191
0.0630756
0.0674011
0.0719194
0.076662
0.0816713
0.0870042
0.0940056
0.103131
0.11499
0.128125
0.143992
0.155999
0.17092
0.173888
0.173599
0.168952
0.164705
0.161611
0.160382
0.161403
0.166454
0.173903
0.17704
0.177166
0.175522
0.172025
0.166929
0.161746
0.1573
0.153647
0.150533
0.147724
0.145129
0.14282
0.140995
0.139815
0.139339
0.139534
0.14032
0.141599
0.143278
0.145279
0.147537
0.150006
0.152656
0.155476
0.158562
0.161953
0.165749
0.170112
0.175301
0.181438
0.187719
0.19053
0.191971
0.192624
0.193262
0.194121
0.195395
0.197115
0.199472
0.201659
0.20347
0.20513
0.20662
0.207902
0.208931
0.20968
0.210208
0.210736
0.211391
0.212267
0.213397
0.214768
0.216344
0.21809
0.219973
0.221976
0.22409
0.226321
0.228686
0.231165
0.233794
0.236654
0.239759
0.24313
0.246791
0.250775
0.255118
0.259865
0.265065
0.270772
0.277048
0.284027
0.291965
0.30135
0.313138
0.329141
0.352614
0.388454
0.440619
0.501253
0.543961
0.559217
0.562454
0.5625
0.5625
0.5625
0.5625
0.5625
0.5625
0.5625
0.5625
0.5625
0.5625
0.5625
0.5625
0.5625
0.5625
0.5625
0.5625
0.5625
0.5625
0.562472
0.559561
0.484965
0.364739
0.351771
0.342267
0.332845
0.32221
0.311325
0.300421
0.290203
0.28178
0.279137
0.0253887
0.0263396
0.0277353
0.0295689
0.0318218
0.0344596
0.0374413
0.0407412
0.0442577
0.0480095
0.052048
0.0563621
0.0607719
0.0652229
0.0698678
0.0747583
0.079955
0.0855411
0.0916374
0.0992828
0.110168
0.126174
0.145955
0.162035
0.181332
0.187694
0.192777
0.221827
0.231207
0.183293
0.180521
0.178198
0.177579
0.180023
0.189555
0.202656
0.206937
0.209262
0.208703
0.205228
0.197417
0.188917
0.181992
0.176508
0.171693
0.166939
0.161991
0.156996
0.152506
0.149039
0.146797
0.145726
0.145656
0.14639
0.147755
0.149605
0.151833
0.154363
0.157152
0.160191
0.163599
0.167453
0.171931
0.177351
0.184332
0.19305
0.201916
0.204185
0.205254
0.204663
0.204444
0.204657
0.205711
0.207784
0.212859
0.216131
0.218459
0.220296
0.221884
0.22314
0.223917
0.22403
0.223449
0.222881
0.222558
0.222682
0.22331
0.224382
0.225804
0.227491
0.229375
0.231415
0.233594
0.235926
0.238446
0.241189
0.244052
0.247244
0.250769
0.254636
0.258861
0.263473
0.268514
0.274042
0.280122
0.286799
0.294043
0.301954
0.310815
0.321267
0.334756
0.353892
0.382922
0.426806
0.484057
0.533591
0.556139
0.5611
0.562482
0.5625
0.5625
0.5625
0.5625
0.5625
0.5625
0.5625
0.5625
0.5625
0.5625
0.5625
0.5625
0.5625
0.5625
0.5625
0.5625
0.562499
0.562472
0.561649
0.548524
0.44202
0.365477
0.352816
0.343388
0.333979
0.323385
0.31251
0.301587
0.291332
0.282883
0.280372
0.0272868
0.0283675
0.0299741
0.0321078
0.0347459
0.0378325
0.041292
0.0450575
0.0490347
0.0532272
0.0576879
0.0623661
0.0674487
0.0728967
0.0782203
0.0839063
0.0901051
0.0970151
0.104945
0.117866
0.136067
0.162676
0.188154
0.198606
0.206383
0.372536
0.544784
0.554068
0.53774
0.506931
0.246846
0.191736
0.190756
0.19506
0.212305
0.220633
0.281826
0.454531
0.446025
0.270903
0.208872
0.202755
0.198178
0.194666
0.191159
0.186786
0.180978
0.173733
0.166197
0.159899
0.15546
0.152842
0.151752
0.151863
0.152889
0.154605
0.156839
0.159476
0.162449
0.165755
0.169492
0.173776
0.178859
0.185241
0.194074
0.204551
0.212077
0.230813
0.247955
0.215741
0.214887
0.214431
0.215424
0.219527
0.231318
0.237736
0.240295
0.242572
0.2453
0.246892
0.247726
0.247017
0.243752
0.240793
0.238432
0.237094
0.236858
0.237487
0.238717
0.240346
0.242239
0.244307
0.246513
0.248886
0.25153
0.254515
0.257861
0.261432
0.265396
0.269749
0.274508
0.279722
0.285475
0.291903
0.299189
0.307421
0.316156
0.32543
0.335553
0.347466
0.363878
0.388805
0.427045
0.479386
0.528555
0.554012
0.561301
0.562473
0.5625
0.5625
0.5625
0.5625
0.5625
0.5625
0.5625
0.5625
0.5625
0.5625
0.5625
0.5625
0.5625
0.5625
0.5625
0.5625
0.5625
0.562498
0.562392
0.559968
0.529137
0.379395
0.365301
0.353814
0.344675
0.335353
0.324797
0.313897
0.302874
0.292538
0.284035
0.281641
0.0290879
0.0303388
0.0322331
0.0347938
0.0379952
0.041737
0.0458708
0.0502763
0.0548657
0.059641
0.064645
0.0698617
0.0754754
0.0818223
0.0888137
0.0957111
0.103505
0.112704
0.126143
0.151138
0.176891
0.209497
0.219899
0.345493
0.540986
0.559644
0.56231
0.562428
0.562305
0.561973
0.552188
0.284623
0.210377
0.216224
0.239262
0.466502
0.560985
0.561971
0.561346
0.549757
0.261933
0.212057
0.210043
0.20931
0.208266
0.205837
0.2008
0.191894
0.180424
0.170809
0.164091
0.159991
0.157986
0.157588
0.1584
0.160109
0.162477
0.165329
0.168559
0.172164
0.176169
0.180708
0.186076
0.193022
0.203517
0.214476
0.327585
0.554737
0.556493
0.535358
0.303462
0.226603
0.226383
0.232145
0.24636
0.364191
0.550378
0.520757
0.55976
0.561254
0.544277
0.342857
0.255218
0.253026
0.250722
0.249335
0.249363
0.250386
0.252023
0.254028
0.256236
0.258529
0.260837
0.263213
0.265957
0.269194
0.272938
0.276992
0.28149
0.28643
0.291855
0.29787
0.304673
0.31264
0.322411
0.334382
0.346042
0.357864
0.370312
0.385138
0.409447
0.449593
0.499545
0.537963
0.555714
0.561161
0.562343
0.562498
0.5625
0.5625
0.5625
0.5625
0.5625
0.5625
0.5625
0.5625
0.5625
0.5625
0.5625
0.5625
0.5625
0.5625
0.5625
0.5625
0.5625
0.562499
0.562397
0.560621
0.533916
0.379664
0.366264
0.35532
0.346349
0.337099
0.326417
0.315461
0.304373
0.293918
0.285286
0.282947
0.0307888
0.0322571
0.0345456
0.0377354
0.0418054
0.0465579
0.0516796
0.056985
0.0623992
0.0679397
0.0736606
0.0796161
0.0860105
0.0931377
0.101694
0.111645
0.122392
0.136347
0.16988
0.214942
0.235815
0.250887
0.515315
0.557791
0.562182
0.562472
0.562498
0.562499
0.562499
0.562497
0.562387
0.525824
0.362786
0.245748
0.325639
0.540156
0.562261
0.562497
0.562494
0.562402
0.54394
0.244829
0.33287
0.401139
0.376701
0.283649
0.23462
0.196137
0.185884
0.17712
0.170338
0.165868
0.163559
0.163055
0.163972
0.165965
0.168729
0.17201
0.175597
0.179497
0.183643
0.188127
0.193209
0.199965
0.210907
0.410963
0.557937
0.562429
0.562468
0.562173
0.553608