/*--------------------------------*- C++ -*----------------------------------*\
| =========                 |                                                 |
| \\      /  F ield         | OpenFOAM: The Open Source CFD Toolbox           |
|  \\    /   O peration     | Version:  2.1.0                                 |
|   \\  /    A nd           | Web:      www.OpenFOAM.org                      |
|    \\/     M anipulation  |                                                 |
\*---------------------------------------------------------------------------*/
FoamFile
{
    version     2.0;
    format      ascii;
    class       volScalarField;
    location    "40150";
    object      kr_w;
}
// * * * * * * * * * * * * * * * * * * * * * * * * * * * * * * * * * * * * * //

dimensions      [0 0 0 0 0 0 0];

internalField   nonuniform List<scalar> 
15000
(
0.5625
0.5625
0.562495
0.562248
0.560029
0.552419
0.5381
0.51916
0.498377
0.477562
0.457592
0.438809
0.4213
0.405047
0.38998
0.376018
0.363075
0.351068
0.339916
0.329548
0.319895
0.310893
0.302484
0.294616
0.287237
0.280304
0.273775
0.267612
0.261781
0.256251
0.250992
0.245977
0.241183
0.236588
0.232174
0.227926
0.223828
0.219869
0.216036
0.21232
0.208712
0.205202
0.201784
0.198451
0.195197
0.192017
0.188906
0.185861
0.182879
0.179957
0.177094
0.174288
0.171539
0.168846
0.16621
0.163629
0.161105
0.158637
0.156225
0.153871
0.151572
0.149329
0.147141
0.145006
0.142924
0.140894
0.138914
0.136981
0.135095
0.133253
0.131454
0.129695
0.127974
0.126291
0.124642
0.123027
0.121443
0.11989
0.118366
0.116869
0.115399
0.113954
0.112533
0.111136
0.109762
0.108412
0.107083
0.105775
0.104489
0.103225
0.101982
0.10076
0.0995587
0.0983792
0.0972214
0.0960857
0.0949726
0.0938826
0.092816
0.0917736
0.090756
0.0897636
0.0887971
0.0878571
0.0869441
0.0860588
0.0852019
0.0843736
0.083574
0.082803
0.0820604
0.0813457
0.0806581
0.0799965
0.0793598
0.0787469
0.0781565
0.0775874
0.0770382
0.076506
0.0759862
0.075471
0.0749499
0.0744084
0.073829
0.0731943
0.0724962
0.071756
0.0710479
0.0704674
0.0700314
0.0697211
0.0695063
0.0692915
0.0690744
0.0688524
0.0686231
0.0683847
0.0681355
0.0678728
0.0675925
0.0672877
0.066949
0.0665628
0.0661091
0.0655577
0.0648571
0.0639042
0.0624365
0.0592541
0.5625
0.5625
0.562467
0.561833
0.558195
0.548539
0.53278
0.513373
0.492746
0.472348
0.452859
0.434535
0.417438
0.40154
0.386777
0.373074
0.360352
0.348533
0.337545
0.327318
0.317788
0.308895
0.300583
0.292799
0.285498
0.278634
0.272169
0.266065
0.260289
0.254809
0.249596
0.244625
0.239871
0.235314
0.230937
0.226723
0.222659
0.218732
0.214932
0.211247
0.207669
0.20419
0.200801
0.197496
0.194269
0.191115
0.188029
0.185008
0.182048
0.179147
0.176303
0.173516
0.170784
0.168107
0.165484
0.162917
0.160404
0.157947
0.155546
0.153201
0.15091
0.148674
0.146493
0.144365
0.142289
0.140264
0.138289
0.136362
0.134482
0.132645
0.130851
0.129098
0.127383
0.125704
0.124061
0.122451
0.120872
0.119324
0.117804
0.116312
0.114845
0.113403
0.111986
0.110593
0.109222
0.107873
0.106546
0.105239
0.103954
0.10269
0.101446
0.100222
0.0990185
0.0978354
0.096673
0.0955317
0.0944117
0.0933133
0.0922369
0.0911828
0.0901513
0.0891427
0.0881571
0.0871948
0.0862561
0.0853409
0.0844491
0.08358
0.0827327
0.0819061
0.0810987
0.0803086
0.0795335
0.0787708
0.0780179
0.0772725
0.0765329
0.0757978
0.075066
0.0743351
0.0735963
0.0728315
0.0720103
0.0710884
0.070008
0.0687046
0.067136
0.0653538
0.0636375
0.0624043
0.0616119
0.0611543
0.0609357
0.0608067
0.0607614
0.0607836
0.0608367
0.0609066
0.0610037
0.0611474
0.0613471
0.061592
0.0618577
0.0621096
0.0623079
0.0624077
0.0623494
0.0620282
0.0611832
0.0586173
0.562496
0.562469
0.562172
0.560271
0.553983
0.541678
0.524577
0.505047
0.484928
0.465246
0.446478
0.428807
0.412275
0.396859
0.382505
0.369149
0.356723
0.345157
0.334387
0.324351
0.314987
0.306242
0.298061
0.290397
0.283203
0.276439
0.270065
0.264045
0.258347
0.25294
0.247795
0.242886
0.238192
0.233692
0.229369
0.225207
0.221194
0.217318
0.213566
0.209928
0.206396
0.20296
0.199614
0.19635
0.193162
0.190045
0.186994
0.184005
0.181076
0.178203
0.175385
0.172621
0.16991
0.167252
0.164646
0.162094
0.159595
0.15715
0.15476
0.152424
0.150142
0.147915
0.145742
0.143621
0.141553
0.139536
0.137569
0.135649
0.133776
0.131947
0.13016
0.128414
0.126706
0.125035
0.123399
0.121796
0.120224
0.118682
0.117169
0.115682
0.114221
0.112785
0.111373
0.109984
0.108617
0.107272
0.105947
0.104643
0.103359
0.102095
0.100851
0.0996262
0.0984203
0.0972337
0.0960664
0.0949188
0.0937908
0.0926826
0.0915943
0.0905261
0.0894778
0.0884494
0.0874407
0.0864514
0.0854812
0.0845293
0.0835944
0.0826748
0.0817684
0.0808725
0.0799835
0.0790972
0.0782084
0.077311
0.0763981
0.0754622
0.0744958
0.0734938
0.0724571
0.0713926
0.0702951
0.0691349
0.0678532
0.066361
0.0645392
0.0622493
0.0593836
0.0559957
0.052795
0.0510122
0.0500217
0.0495107
0.0493115
0.0493422
0.0496073
0.0500776
0.0506123
0.0511673
0.051785
0.0525329
0.0534468
0.0545
0.0556376
0.0567864
0.0578712
0.0588224
0.0595677
0.0599987
0.0598575
0.0579501
0.562265
0.561865
0.560323
0.555682
0.546035
0.531474
0.513721
0.494597
0.475332
0.456601
0.438727
0.421846
0.405992
0.391151
0.377285
0.364343
0.35227
0.341009
0.330502
0.320696
0.311535
0.30297
0.294952
0.287436
0.280378
0.273738
0.267479
0.261567
0.255968
0.250654
0.245595
0.240769
0.236152
0.231726
0.227474
0.223382
0.219437
0.215626
0.211937
0.208362
0.204889
0.201512
0.198221
0.19501
0.191873
0.188804
0.185798
0.182851
0.17996
0.177122
0.174336
0.1716
0.168915
0.166279
0.163693
0.161158
0.158675
0.156244
0.153866
0.151541
0.14927
0.147052
0.144888
0.142776
0.140717
0.138709
0.136751
0.13484
0.132976
0.131156
0.12938
0.127643
0.125945
0.124284
0.122657
0.121063
0.1195
0.117967
0.116461
0.114983
0.113529
0.1121
0.110695
0.109312
0.10795
0.106609
0.105288
0.103987
0.102705
0.101442
0.100198
0.0989718
0.0977634
0.0965729
0.0954003
0.0942455
0.0931084
0.091989
0.0908871
0.0898025
0.0887349
0.0876837
0.0866482
0.0856277
0.0846209
0.083626
0.0826407
0.0816618
0.0806855
0.0797067
0.0787191
0.0777145
0.0766823
0.075609
0.0744767
0.0732621
0.0719384
0.0704863
0.0689206
0.0673084
0.0656777
0.0639898
0.0621489
0.0600126
0.057395
0.0540785
0.0498714
0.0447104
0.0400793
0.0386136
0.0378565
0.0374623
0.0372974
0.0374547
0.0380057
0.0389956
0.0400135
0.0409717
0.041997
0.0432596
0.0448621
0.0467499
0.0488317
0.0509842
0.0530757
0.0549925
0.0566372
0.057892
0.0584989
0.0572653
0.560208
0.558442
0.554291
0.546295
0.534006
0.518362
0.500815
0.482571
0.464411
0.446776
0.429898
0.413885
0.398774
0.384566
0.371239
0.358757
0.347078
0.336158
0.325949
0.316403
0.307475
0.299117
0.291287
0.283942
0.277042
0.270549
0.264426
0.258641
0.253162
0.247959
0.243006
0.238278
0.233756
0.229421
0.225257
0.22125
0.217388
0.213658
0.210048
0.206549
0.203151
0.199845
0.196624
0.193479
0.190404
0.187394
0.184443
0.181547
0.178702
0.175906
0.173158
0.170456
0.1678
0.165191
0.162628
0.160113
0.157646
0.15523
0.152865
0.150552
0.148292
0.146084
0.14393
0.141828
0.139779
0.137782
0.135834
0.133934
0.132082
0.130274
0.128509
0.126784
0.125098
0.123448
0.121832
0.120249
0.118698
0.117175
0.11568
0.114211
0.112767
0.111347
0.109949
0.108573
0.107218
0.105883
0.104567
0.10327
0.10199
0.100729
0.0994851
0.098258
0.0970473
0.0958527
0.0946742
0.0935115
0.0923643
0.0912323
0.0901153
0.0890125
0.0879232
0.0868465
0.0857811
0.0847255
0.0836776
0.0826343
0.0815919
0.0805456
0.0794891
0.0784145
0.0773109
0.076164
0.074954
0.0736523
0.0722172
0.0705879
0.0686875
0.0664611
0.0639837
0.0615641
0.0592957
0.0570971
0.0548064
0.05222
0.0490992
0.0451757
0.0401976
0.0338035
0.0290442
0.0288368
0.0283213
0.0280834
0.027922
0.0280223
0.02857
0.0299841
0.0312724
0.0322693
0.033293
0.0346788
0.036679
0.0391802
0.042057
0.0451572
0.0482555
0.0511575
0.0537199
0.0558072
0.0571585
0.056579
0.55315
0.549366
0.542554
0.532252
0.518843
0.503286
0.486587
0.469516
0.452583
0.436102
0.420253
0.405135
0.390794
0.377246
0.364483
0.352487
0.341228
0.330672
0.320782
0.311519
0.302842
0.294712
0.287089
0.279935
0.273212
0.266884
0.260916
0.255277
0.249934
0.24486
0.240028
0.235416
0.231004
0.226775
0.222715
0.218809
0.215045
0.21141
0.207895
0.204487
0.201178
0.197958
0.19482
0.191754
0.188754
0.185814
0.182929
0.180092
0.177302
0.174556
0.171852
0.16919
0.166568
0.163988
0.161451
0.158957
0.156509
0.154109
0.151758
0.149457
0.147207
0.145011
0.142867
0.140776
0.138738
0.136751
0.134816
0.132929
0.13109
0.129296
0.127544
0.125834
0.124161
0.122525
0.120923
0.119353
0.117814
0.116304
0.114821
0.113364
0.111931
0.110522
0.109134
0.107768
0.106421
0.105093
0.103783
0.10249
0.101214
0.0999545
0.0987108
0.0974831
0.0962701
0.0950713
0.0938865
0.0927154
0.0915573
0.0904118
0.0892783
0.0881558
0.0870431
0.0859388
0.0848409
0.0837472
0.0826542
0.0815577
0.0804524
0.0793313
0.0781851
0.0770016
0.0757641
0.0744485
0.0730196
0.0714229
0.0695713
0.0673291
0.0645153
0.0610017
0.057032
0.0536786
0.0509354
0.0485252
0.0461634
0.0435885
0.0405446
0.0367712
0.0320281
0.0255385
0.0235586
0.0188083
0.0138356
0.00756032
0.00534812
0.00813364
0.0141484
0.026546
0.0273829
0.0277138
0.0280882
0.028874
0.030614
0.0331225
0.0362347
0.0399658
0.0438885
0.0476491
0.0510299
0.053869
0.0558971
0.0559098
0.539806
0.534531
0.52628
0.515224
0.50195
0.487207
0.471679
0.455888
0.4402
0.424857
0.410019
0.395783
0.382207
0.369317
0.357124
0.345621
0.33479
0.32461
0.315051
0.306082
0.29767
0.28978
0.282378
0.275428
0.268896
0.262748
0.256951
0.251473
0.246283
0.241353
0.236658
0.232176
0.227891
0.223784
0.219841
0.216051
0.212399
0.208876
0.205469
0.202168
0.198963
0.195844
0.192803
0.18983
0.186918
0.184061
0.181252
0.178486
0.175761
0.173072
0.17042
0.167802
0.165219
0.162672
0.160162
0.157692
0.155263
0.152879
0.150542
0.148253
0.146014
0.143828
0.141694
0.139614
0.137588
0.135614
0.133692
0.13182
0.129996
0.128217
0.126482
0.124787
0.12313
0.12151
0.119923
0.118369
0.116845
0.115349
0.113881
0.112438
0.111019
0.109623
0.108247
0.106892
0.105555
0.104235
0.102933
0.101646
0.100374
0.0991168
0.097874
0.0966463
0.0954311
0.0942281
0.0930369
0.0918567
0.0906872
0.0895274
0.0883765
0.0872331
0.0860955
0.0849617
0.0838291
0.0826942
0.0815528
0.080399
0.0792254
0.0780226
0.0767774
0.0754721
0.0740813
0.0725671
0.0708712
0.068898
0.0664878
0.0633815
0.0592244
0.053761
0.0475503
0.0436446
0.0409912
0.0388992
0.0369628
0.0349097
0.0325227
0.029608
0.0259902
0.0203178
0.0103988
2.39342e-05
4.34513e-07
3.71239e-09
4.15009e-05
0.00153863
0.0020923
0.00355418
0.00538887
0.00695223
0.0111068
0.017053
0.0282339
0.0299458
0.0322834
0.036153
0.040541
0.0448485
0.0487973
0.0522023
0.0547732
0.0552752
0.522079
0.516235
0.507732
0.496961
0.484477
0.47085
0.456574
0.442039
0.427533
0.413265
0.399382
0.385985
0.373141
0.36089
0.349253
0.338234
0.327828
0.318022
0.308795
0.300123
0.29198
0.284336
0.277162
0.270425
0.264095
0.258139
0.252525
0.247222
0.242198
0.237427
0.232884
0.228548
0.224403
0.220432
0.216621
0.21296
0.209437
0.206039
0.202757
0.199579
0.196494
0.193492
0.190563
0.187698
0.184889
0.182127
0.179407
0.176724
0.174073
0.171451
0.168857
0.166291
0.163751
0.161241
0.158761
0.156316
0.153908
0.15154
0.149216
0.146938
0.144709
0.142532
0.140408
0.138338
0.136324
0.134363
0.132456
0.1306
0.128793
0.127032
0.125315
0.123639
0.122
0.120397
0.118829
0.117292
0.115785
0.114306
0.112855
0.111428
0.110026
0.108645
0.107284
0.105941
0.104616
0.103307
0.102013
0.100733
0.0994666
0.0982128
0.0969716
0.0957442
0.0945272
0.09332
0.0921221
0.0909328
0.0897514
0.0885768
0.0874077
0.0862424
0.0850786
0.0839137
0.0827443
0.0815661
0.0803732
0.0791582
0.0779115
0.07662
0.0752662
0.0738248
0.072259
0.0705126
0.0684952
0.0660553
0.0629345
0.0587118
0.0528196
0.0448582
0.0357451
0.0324958
0.0306487
0.0293073
0.0281045
0.0268444
0.0253923
0.0236226
0.0213789
0.0164142
0.00505695
0.000402543
7.55582e-06
9.18807e-08
1.24867e-07
1.47323e-05
2.76997e-05
6.46055e-05
0.000111475
0.000142912
0.00230243
0.00343905
0.0150894
0.022971
0.0314291
0.0348812
0.0388487
0.0430637
0.0471729
0.0508829
0.0538219
0.0546862
0.502603
0.496808
0.488683
0.478645
0.467163
0.454685
0.441598
0.428216
0.414786
0.401496
0.388488
0.375866
0.363705
0.352054
0.340944
0.330389
0.320392
0.310948
0.302045
0.293664
0.285786
0.278386
0.27144
0.264919
0.258796
0.25304
0.247619
0.242502
0.237658
0.23306
0.228684
0.22451
0.220519
0.216697
0.213033
0.209515
0.206134
0.202878
0.199736
0.196698
0.19375
0.190883
0.188084
0.185343
0.182653
0.180003
0.177387
0.174799
0.172234
0.169689
0.167163
0.164654
0.162164
0.159693
0.157247
0.154827
0.152439
0.150087
0.147775
0.145507
0.143286
0.141116
0.139
0.13694
0.134937
0.13299
0.131098
0.12926
0.127472
0.125732
0.124036
0.12238
0.120762
0.11918
0.117631
0.116114
0.114627
0.113168
0.111735
0.110328
0.108944
0.107581
0.106238
0.104911
0.1036
0.102304
0.10102
0.0997483
0.098488
0.0972384
0.0959992
0.0947707
0.0935523
0.0923413
0.091137
0.0899386
0.0887453
0.0875555
0.0863677
0.0851796
0.0839885
0.0827912
0.0815832
0.0803591
0.0791117
0.0778314
0.0765059
0.0751182
0.0736445
0.0720506
0.0702854
0.0682693
0.0658732
0.062879
0.0589181
0.0534141
0.0456688
0.0353397
0.023729
0.0222537
0.02126
0.0206546
0.0201761
0.0196916
0.0191425
0.0184841
0.0175882
0.0125396
0.00215824
0.000116676
2.43406e-06
3.07616e-08
1.03159e-09
1.38066e-07
3.19817e-07
9.42249e-07
1.63621e-06
1.87423e-06
5.01473e-05
7.81266e-05
0.000640628
0.0199394
0.0311902
0.0343638
0.0379942
0.0419889
0.0460599
0.0498876
0.0530415
0.0541443
0.483142
0.477664
0.470133
0.46092
0.450418
0.438991
0.426959
0.41459
0.402104
0.389676
0.377447
0.365522
0.35398
0.342879
0.332256
0.322132
0.312518
0.303415
0.294817
0.286712
0.279087
0.271921
0.265195
0.258887
0.252969
0.247415
0.242194
0.237274
0.232625
0.228217
0.224025
0.220026
0.216204
0.212545
0.20904
0.20568
0.202455
0.199357
0.196374
0.193494
0.190703
0.18799
0.185341
0.182745
0.180191
0.177671
0.175176
0.172699
0.170235
0.16778
0.165331
0.162889
0.160453
0.158027
0.155616
0.153224
0.150856
0.148518
0.146215
0.143954
0.141738
0.139573
0.137463
0.13541
0.133416
0.131482
0.129606
0.127788
0.126022
0.124305
0.122633
0.121001
0.119407
0.117847
0.11632
0.114825
0.11336
0.111923
0.110513
0.109128
0.107766
0.106424
0.105101
0.103793
0.102499
0.101217
0.0999462
0.0986847
0.097432
0.0961877
0.0949512
0.0937224
0.0925033
0.0912887
0.0900781
0.0888704
0.0876644
0.0864586
0.0852507
0.0840382
0.082818
0.0815859
0.0803368
0.0790637
0.0777578
0.0764072
0.074996
0.0735024
0.0718951
0.0701292
0.0681366
0.0658116
0.0629822
0.0593613
0.0544801
0.0476801
0.0383966
0.0269527
0.0160045
0.00886307
0.00397066
0.000960629
0.000154455
0.000140799
0.0007552
0.0017167
0.00711211
0.00363275
0.000295332
4.50435e-06
7.0467e-08
8.89014e-10
1.47125e-11
1.37312e-09
3.67184e-09
1.2731e-08
2.10344e-08
2.25708e-08
6.6789e-07
1.09393e-06
1.57763e-05
0.0282959
0.0312029
0.0340609
0.0376088
0.0413517
0.0453057
0.0491451
0.0524047
0.0536429
0.464569
0.459479
0.452547
0.444095
0.43445
0.42392
0.412779
0.401265
0.389581
0.377892
0.366336
0.355019
0.344025
0.333413
0.323227
0.313493
0.304227
0.295434
0.287114
0.279261
0.271865
0.264913
0.25839
0.252279
0.246558
0.241203
0.236185
0.231475
0.227038
0.22284
0.21885
0.215045
0.211407
0.207924
0.204591
0.201401
0.198348
0.195425
0.19262
0.18992
0.187309
0.184773
0.182298
0.179869
0.177476
0.175107
0.172754
0.170408
0.168063
0.165712
0.163354
0.160988
0.158614
0.156238
0.153865
0.1515
0.149151
0.146826
0.14453
0.142271
0.140056
0.137891
0.135781
0.133731
0.131737
0.129806
0.127943
0.126147
0.124407
0.122718
0.121074
0.119471
0.117903
0.116369
0.114867
0.113396
0.111955
0.110543
0.109158
0.107799
0.106462
0.105146
0.103847
0.102562
0.101289
0.100025
0.0987688
0.0975193
0.0962758
0.0950377
0.0938049
0.092577
0.0913579
0.0901402
0.0889233
0.0877061
0.0864871
0.0852643
0.0840356
0.0827977
0.0815469
0.0802782
0.0789853
0.0776599
0.0762908
0.0748633
0.0733574
0.071745
0.0699868
0.0680254
0.0657754
0.0631037
0.0597956
0.0554978
0.0496647
0.0416498
0.0312493
0.0197092
0.0110886
0.00295418
0.000195497
1.85451e-06
7.7262e-09
3.63955e-07
2.47613e-05
3.44187e-05
2.95624e-05
8.67896e-05
7.48598e-06
1.68169e-07
2.49266e-09
2.92479e-11
3.3939e-13
1.44725e-11
4.50894e-11
1.74441e-10
2.47642e-10
2.24149e-10
5.86654e-09
7.7255e-09
0.00116711
0.0284617
0.0311232
0.0338136
0.0372497
0.0409197
0.0447672
0.0485769
0.0518751
0.0531718
0.44724
0.442516
0.436107
0.42829
0.419347
0.409542
0.399122
0.388302
0.377272
0.366194
0.3552
0.344398
0.333872
0.323684
0.313878
0.304485
0.295522
0.287
0.27892
0.271281
0.264079
0.257307
0.250955
0.245012
0.239466
0.234299
0.229488
0.225001
0.220799
0.216837
0.213076
0.209487
0.20605
0.202757
0.199606
0.196598
0.193733
0.191003
0.188399
0.185905
0.183503
0.181173
0.1789
0.176668
0.174464
0.172275
0.170091
0.167902
0.165697
0.163471
0.16122
0.158942
0.15664
0.15432
0.151987
0.149651
0.14732
0.145003
0.14271
0.140448
0.138227
0.136054
0.133938
0.131865
0.129855
0.127918
0.126058
0.124277
0.122568
0.120913
0.119304
0.117734
0.116198
0.114694
0.11322
0.111777
0.110365
0.108982
0.107628
0.1063
0.104996
0.103712
0.102444
0.101188
0.0999416
0.0987009
0.0974643
0.0962304
0.0949987
0.0937692
0.0925417
0.0913159
0.0900918
0.0888722
0.08765
0.0864238
0.0851921
0.0839526
0.0827024
0.0814379
0.0801544
0.078846
0.077505
0.0761209
0.0746801
0.0731645
0.0715491
0.0697997
0.0678683
0.0656858
0.0631498
0.0601021
0.0562871
0.0512921
0.0445263
0.0354516
0.0243846
0.0134992
0.00808734
0.000862438
3.84853e-06
1.37755e-08
5.47088e-11
4.52158e-10
1.05219e-07
2.41554e-07
3.04171e-07
1.1402e-06
1.4305e-07
2.97401e-09
4.53272e-11
5.71952e-13
6.67102e-15
1.58885e-13
6.43815e-13
2.70061e-12
2.70024e-12
2.07966e-12
7.86433e-11
2.21817e-05
0.00621069
0.0282914
0.0309495
0.0335878
0.0369253
0.0405354
0.0443538
0.0481212
0.0514194
0.0527202
0.431258
0.426845
0.420855
0.413534
0.405128
0.395877
0.386006
0.375719
0.365198
0.354599
0.344055
0.333671
0.32353
0.313694
0.304206
0.295098
0.286387
0.278084
0.270194
0.262719
0.255657
0.249008
0.242771
0.236947
0.231536
0.226534
0.221927
0.217682
0.213747
0.210062
0.206569
0.203226
0.200011
0.196921
0.193963
0.191148
0.188484
0.18597
0.183594
0.18134
0.179183
0.177099
0.175068
0.17307
0.171092
0.169119
0.16714
0.16514
0.163108
0.161033
0.158911
0.156739
0.15452
0.152262
0.149975
0.147668
0.145353
0.143041
0.140743
0.138471
0.136234
0.134043
0.13188
0.129773
0.127735
0.12578
0.123918
0.122154
0.120481
0.118867
0.117301
0.115771
0.114272
0.112801
0.111358
0.109946
0.108564
0.107214
0.105895
0.104604
0.103339
0.102095
0.100866
0.0996482
0.0984353
0.0972239
0.0960117
0.0947975
0.0935808
0.0923621
0.0911414
0.089919
0.0886946
0.0874739
0.0862464
0.0850106
0.0837644
0.0825051
0.0812293
0.0799327
0.0786098
0.0772531
0.0758531
0.0743973
0.0728692
0.0712467
0.0695006
0.0675909
0.0654623
0.0630361
0.0601958
0.0567603
0.0524362
0.046762
0.0391435
0.0292526
0.0179902
0.0081192
0.00602805
0.000240671
2.06038e-06
1.3609e-08
6.54124e-11
1.2473e-12
4.24401e-10
1.42548e-09
2.42578e-09
1.0667e-08
1.51922e-09
3.43325e-11
5.5405e-13
7.42353e-15
0
1.11766e-15
1.19926e-14
2.17432e-13
1.74171e-11
2.92611e-09
6.20938e-07
0.0001436
0.0090823
0.0280887
0.030759
0.0333829
0.036654
0.0402001
0.0439721
0.047721
0.0510115
0.0522787
0.416619
0.412449
0.406769
0.399802
0.391773
0.382907
0.373417
0.363502
0.353343
0.343093
0.332885
0.32282
0.312979
0.30342
0.294184
0.285298
0.276777
0.268631
0.260865
0.253479
0.246478
0.239866
0.233655
0.227864
0.222367
0.217325
0.212917
0.208949
0.205351
0.202027
0.198882
0.19585
0.192904
0.190044
0.187294
0.184688
0.182249
0.179986
0.177889
0.175935
0.174091
0.172322
0.170599
0.168899
0.167208
0.165512
0.163795
0.16204
0.160229
0.158347
0.156387
0.154347
0.15223
0.150047
0.14781
0.145534
0.143233
0.140921
0.138612
0.136318
0.134051
0.131807
0.129584
0.12741
0.125306
0.123297
0.121407
0.119654
0.118028
0.116471
0.114963
0.113486
0.112032
0.1106
0.109191
0.107812
0.106465
0.105153
0.103875
0.102631
0.101415
0.100223
0.0990472
0.097879
0.0967113
0.0955391
0.0943591
0.0931704
0.091973
0.090768
0.0895561
0.0883382
0.0871142
0.085888
0.0846552
0.083408
0.0821439
0.0808598
0.0795516
0.0782138
0.0768395
0.07542
0.0739435
0.0723952
0.0707564
0.0690024
0.0671009
0.0650084
0.0626651
0.0599858
0.0568426
0.0530333
0.0482295
0.0419365
0.0336206
0.023299
0.0125214
0.00427388
0.000640345
2.18467e-05
1.61158e-07
9.73746e-10
4.80335e-12
2.23944e-14
1.54643e-12
6.93141e-12
1.47638e-11
7.18013e-11
1.07901e-11
2.76474e-13
4.55636e-15
0
0
0
0
1.65753e-13
4.74989e-11
8.34491e-09
1.31463e-06
0.000179911
0.013547
0.0279734
0.0306113
0.0332122
0.0364203
0.0399071
0.0436294
0.0473434
0.0506104
0.0518365
0.403269
0.399274
0.393798
0.387047
0.379237
0.370587
0.361308
0.351604
0.341657
0.331626
0.321638
0.311794
0.302167
0.292809
0.283753
0.275019
0.266616
0.258548
0.250815
0.243415
0.236353
0.229645
0.223087
0.216448
0.210058
0.204138
0.199072
0.195536
0.192559
0.189959
0.187524
0.185123
0.182695
0.180249
0.177844
0.175566
0.173486
0.171635
0.170005
0.168563
0.167255
0.166015
0.164797
0.163573
0.16233
0.161056
0.159737
0.158348
0.156865
0.155266
0.153539
0.151682
0.149705
0.147621
0.14545
0.143211
0.140925
0.138608
0.136278
0.133948
0.131634
0.129293
0.126964
0.124662
0.122412
0.120256
0.118262
0.116493
0.114933
0.113463
0.112042
0.110644
0.109254
0.107872
0.106505
0.105165
0.10386
0.102596
0.101373
0.100191
0.0990463
0.0979308
0.0968333
0.095741
0.0946421
0.0935288
0.0923968
0.0912452
0.0900755
0.0888899
0.0876908
0.0864796
0.0852568
0.0840222
0.0827842
0.081523
0.0802353
0.0789171
0.0775633
0.0761673
0.074721
0.0732141
0.0716339
0.0699645
0.0681865
0.0662752
0.0641982
0.0619117
0.0593545
0.0564369
0.0530205
0.0488809
0.0436548
0.0368361
0.028035
0.0177557
0.00818531
0.00214339
0.000163709
6.07437e-06
4.53955e-08
2.72186e-10
1.35468e-12
5.61686e-15
4.70559e-15
2.79033e-14
7.00028e-14
3.63166e-13
5.64544e-14
1.20656e-15
0
0
0
0
0
1.0351e-14
1.94539e-10
2.00992e-08
2.14885e-06
0.000182594
0.0247859
0.0280788
0.0305315
0.0330704
0.0362069
0.0396345
0.0433056
0.0469783
0.0502099
0.0513892
0.391142
0.387256
0.381877
0.375206
0.367455
0.358845
0.349601
0.339938
0.33005
0.320102
0.310222
0.300501
0.291004
0.28177
0.272818
0.264157
0.255784
0.24769
0.239864
0.2323
0.225003
0.217591
0.209677
0.20152
0.193086
0.18495
0.177691
0.174037
0.172061
0.170814
0.169732
0.168514
0.167005
0.165205
0.163253
0.161376
0.159785
0.158561
0.157706
0.157172
0.15685
0.156593
0.156298
0.155924
0.155466
0.154926
0.154292
0.153532
0.152605
0.151476
0.150129
0.148567
0.146806
0.144875
0.142802
0.14062
0.138356
0.136034
0.133675
0.131295
0.128894
0.126425
0.123916
0.121369
0.118803
0.116279
0.113967
0.112113
0.110655
0.109335
0.108071
0.106809
0.105522
0.10421
0.102894
0.1016
0.100347
0.0991454
0.0979986
0.0969083
0.0958721
0.0948805
0.0939154
0.0929526
0.0919716
0.0909583
0.0899064
0.0888161
0.0876913
0.0865372
0.0853585
0.0841586
0.0829388
0.081699
0.0804491
0.0791702
0.0778498
0.076483
0.0750643
0.073587
0.0720423
0.0704202
0.0687081
0.0668913
0.0649525
0.06287
0.0606155
0.058148
0.0554066
0.0522972
0.0486679
0.0442658
0.0386906
0.0314573
0.0224283
0.0127145
0.00493109
0.00101988
3.86873e-05
6.63546e-07
5.24011e-09
3.06774e-11
1.515e-13
1.68284e-16
0
0
3.17516e-18
9.55724e-16
3.17516e-18
0
0
0
0
0
0
3.17516e-18
3.0468e-10
4.22818e-08
4.81945e-06
0.00046859
0.0250072
0.0280248
0.0303998
0.032906
0.0359847
0.0393605
0.0429836
0.0466147
0.0498069
0.0509352
0.380139
0.376278
0.370885
0.364163
0.356337
0.347649
0.338282
0.328373
0.318374
0.308374
0.298489
0.2888
0.279351
0.270162
0.261234
0.252553
0.244096
0.235836
0.227747
0.219807
0.211739
0.202385
0.191957
0.180563
0.168091
0.156675
0.14527
0.141421
0.140874
0.142078
0.143394
0.14421
0.144145
0.143128
0.141255
0.138379
0.137245
0.136845
0.137194
0.138233
0.139767
0.141378
0.142799
0.14396
0.144898
0.145659
0.146253
0.146632
0.146715
0.146432
0.145758
0.144704
0.143312
0.141634
0.139726
0.137639
0.135418
0.133097
0.130703
0.128253
0.125697
0.123033
0.120238
0.117275
0.11411
0.11079
0.107683
0.105667
0.104379
0.103358
0.102399
0.101393
0.100282
0.0990632
0.0977901
0.096536
0.095338
0.0942112
0.0931643
0.0922049
0.0913365
0.0905516
0.0898207
0.0890907
0.0883212
0.0874853
0.0865728
0.0855865
0.0845361
0.0834333
0.0822883
0.0811078
0.0798951
0.0786498
0.0773693
0.0760732
0.0747144
0.0732882
0.0717894
0.0702122
0.0685494
0.0667921
0.0649303
0.0629529
0.0608478
0.0586006
0.0561912
0.0535841
0.050719
0.0474941
0.0437348
0.0391465
0.033293
0.0257676
0.0168296
0.0082654
0.00265189
0.000461745
8.69992e-06
3.7426e-08
1.87889e-10
9.6773e-13
4.45793e-15
0
0
0
0
0
0
0
0
0
0
0
0
2.2153e-12
2.96669e-10
6.18858e-08
1.40931e-05
0.00261972
0.0248202
0.02783
0.030197
0.0326954
0.0357332
0.0390671
0.0426495
0.0462438
0.0493992
0.0504735
0.370161
0.36622
0.360666
0.353714
0.345611
0.336635
0.327032
0.316944
0.306827
0.29657
0.28623
0.276481
0.267005
0.257783
0.248786
0.23997
0.231284
0.222676
0.214086
0.205447
0.194807
0.181981
0.166816
0.151691
0.135375
0.12424
0.111658
0.109307
0.109534
0.113245
0.11674
0.119354
0.120407
0.119531
0.115288
0.109295
0.106861
0.106765
0.108033
0.110777
0.114897
0.119238
0.123089
0.126346
0.129189
0.131809
0.134278
0.136514
0.138309
0.139482
0.139959
0.139763
0.138979
0.137712
0.136067
0.134134
0.131985
0.129677
0.127243
0.124705
0.121984
0.119062
0.115872
0.112307
0.108204
0.103535
0.0989516
0.0969618
0.0959563
0.0955042
0.0950638
0.0944736
0.0936057
0.0924445
0.0908754
0.0894408
0.0882681
0.0872057
0.086262
0.0854576
0.0848172
0.0843536
0.0840276
0.0837036
0.0833025
0.0827691
0.0820857
0.0812635
0.0803268
0.0793011
0.0782075
0.0770597
0.0758643
0.0746204
0.0733224
0.0719831
0.0705865
0.0690953
0.0675076
0.0658211
0.064032
0.0621351
0.0601243
0.0579927
0.0557345
0.0533453
0.0508207
0.0481346
0.0452263
0.0419793
0.0381751
0.0334593
0.0273766
0.0197135
0.0113255
0.00457932
0.00120154
0.000202685
2.7848e-06
1.42698e-08
6.9376e-11
3.25054e-13
1.08273e-15
0
0
0
0
0
0
0
0
0
0
0
0
1.92431e-10
7.70312e-09
1.72908e-06
0.000181261
0.00613643
0.0245814
0.0275794
0.0299433
0.0324363
0.0354411
0.0387411
0.0422917
0.0458587
0.0489858
0.0500037
0.361137
0.357001
0.351126
0.343734
0.335115
0.325603
0.31552
0.305087
0.294705
0.28436
0.273965
0.263602
0.253705
0.244344
0.235166
0.226072
0.216975
0.207769
0.198323
0.187256
0.172794
0.153837
0.133487
0.118992
0.103613
0.0989691
0.0953981
0.0771444
0.0719605
0.102161
0.10422
0.105975
0.106448
0.104594
0.0976475
0.0887931
0.0860627
0.0846115
0.0849583
0.0871438
0.0922423
0.0980988
0.103122
0.10727
0.111042
0.114889
0.11903
0.123358
0.127381
0.130576
0.132686
0.133706
0.133773
0.133072
0.13178
0.130049
0.127994
0.1257
0.12322
0.120572
0.117668
0.114467
0.110852
0.106623
0.101399
0.09521
0.0892735
0.0878095
0.0871268
0.0875038
0.0876432
0.0875074
0.0868369
0.0855317
0.0824107
0.0804529
0.0790857
0.0780217
0.0771118
0.0763995
0.0759614
0.0758976
0.0762251
0.0765458
0.0767289
0.0766582
0.0763035
0.0757006
0.074907
0.0739759
0.0729479
0.0718494
0.070692
0.0694721
0.0681746
0.0667873
0.0653662
0.063814
0.0621378
0.0603445
0.0584379
0.0564178
0.0542797
0.0520167
0.0496221
0.0471015
0.04449
0.0417771
0.0389015
0.0357178
0.0319184
0.0270715
0.0207825
0.0132756
0.00622815
0.00193802
0.00039654
8.58968e-05
1.09557e-06
5.80856e-09
2.8434e-11
1.30807e-13
1.58758e-16
0
0
0
0
0
0
0
0
0
0
0
1.22651e-09
3.77954e-08
1.69706e-06
5.21088e-05
0.000892575
0.0111374
0.0244182
0.0273283
0.0296568
0.0321282
0.0350989
0.0383704
0.0418999
0.0454528
0.0485663
0.0495259
0.352989
0.348537
0.342147
0.334055
0.324606
0.314245
0.303413
0.292439
0.281652
0.27106
0.260557
0.250284
0.239875
0.229469
0.219951
0.210406
0.200642
0.190454
0.179558
0.163364
0.143279
0.118447
0.0986412
0.0914488
0.0864117
0.0228972
0.0011451
0.000529071
0.00163748
0.00407436
0.0640057
0.0961194
0.0968034
0.0938334
0.082746
0.0778275
0.0489683
0.00953213
0.010609
0.0532915
0.0848536
0.0887291
0.091734
0.0941016
0.0965215
0.0996202
0.103878
0.109429
0.115501
0.120824
0.124719
0.127075
0.128068
0.127967
0.127032
0.125484
0.123496
0.12119
0.11864
0.115867
0.112807
0.109394
0.105473
0.100736
0.0945058
0.0875752
0.0828847
0.0721718
0.0634725
0.0806842
0.0811922
0.0814648
0.0808723
0.0784657
0.0719011
0.0685382
0.0672366
0.0660978
0.0647552
0.0639832
0.0635824
0.063923
0.0655142
0.0669861
0.0681821
0.0688682
0.0689896
0.0686657
0.0680367
0.0672109
0.0662631
0.0652412
0.0641666
0.0630281
0.0617813
0.0604
0.0588845
0.057304
0.0555936
0.0537672
0.0518299
0.0497769
0.0475926
0.0452486
0.0427093
0.0399834
0.0372475
0.0345093
0.031704
0.028632
0.0247725
0.019647
0.0132403
0.00670914
0.00231378
0.0005327
7.35197e-05
1.64601e-06
1.44329e-08
7.83706e-11
4.08399e-13
1.75269e-15
0
0
0
0
0
0
0
0
0
0
0
0
1.56039e-09
1.10772e-07
6.6018e-06
0.000155968
0.00226977
0.0214847
0.0244569
0.0270901
0.0293305
0.0317578
0.0346909
0.0379401
0.0414708
0.0450224
0.0481317
0.049039
0.345639
0.340733
0.333592
0.32444
0.313718
0.302074
0.29017
0.278437
0.267116
0.256181
0.245526
0.235177
0.224784
0.213835
0.202625
0.192325
0.181477
0.16962
0.153872
0.128632
0.106976
0.0844667
0.0782504
0.0291244
0.00140785
0.000176071
1.15929e-05
4.3701e-06
1.19067e-05
3.22692e-05
0.000650905
0.0479109
0.083924
0.0803981
0.0677596
0.00811489
9.30273e-05
3.23466e-05
7.07733e-05
0.000810616
0.0570852
0.0828969
0.0841291
0.0845821
0.0852309
0.0867571
0.0900014
0.0960095
0.104293
0.111748
0.117255
0.120744
0.122487
0.122836
0.122126
0.120642
0.118617
0.11622
0.113563
0.110667
0.107532
0.10408
0.100132
0.095229
0.0882378
0.081438
0.0338964
0.000486063
0.000374045
0.00180903
0.0412759
0.0744648
0.0745863
0.0714594
0.0642403
0.0247029
0.000769619
0.00292035
0.000168839
7.64352e-05
0.00117981
0.0297924
0.0600786
0.0610852
0.06216
0.0628149
0.0628013
0.062318
0.0615509
0.0606233
0.0596161
0.0585858
0.0575646
0.0565298
0.0553553
0.0539969
0.0524623
0.050843
0.0490969
0.0472381
0.0452659
0.0431599
0.0408769
0.03833
0.0353825
0.0320193
0.0289869
0.0261392
0.0233688
0.0203496
0.0159906
0.0101499
0.00473487
0.00162155
0.000423585
8.21393e-05
9.58284e-06
1.42537e-07
1.1077e-09
6.64639e-12