/*--------------------------------*- C++ -*----------------------------------*\
| =========                 |                                                 |
| \\      /  F ield         | OpenFOAM: The Open Source CFD Toolbox           |
|  \\    /   O peration     | Version:  2.1.0                                 |
|   \\  /    A nd           | Web:      www.OpenFOAM.org                      |
|    \\/     M anipulation  |                                                 |
\*---------------------------------------------------------------------------*/
FoamFile
{
    version     2.0;
    format      ascii;
    class       surfaceScalarField;
    location    "40150";
    object      phi_o;
}
// * * * * * * * * * * * * * * * * * * * * * * * * * * * * * * * * * * * * * //

dimensions      [1 -2 -2 0 0 0 0];

internalField   nonuniform List<scalar> 
29750
(
18.5918
18.6184
11.225
7.36685
7.75626
3.46882
5.85932
1.90034
4.71034
1.17207
3.98116
0.793711
3.5063
0.580091
3.18409
0.449135
2.95395
0.361667
2.78248
0.298782
2.65129
0.251016
2.54977
0.213273
2.47128
0.182586
2.41135
0.157103
2.36679
0.135607
2.33518
0.117267
2.31459
0.101497
2.30344
0.0878762
2.30036
0.0760965
2.30415
0.0659268
2.31375
0.057189
2.32815
0.0497416
2.34646
0.0434673
2.36784
0.0382626
2.3915
0.0340323
2.41675
0.0306848
2.44295
0.0281285
2.46954
0.0262734
2.49604
0.0250327
2.52202
0.024325
2.54713
0.0240777
2.57109
0.0242287
2.59364
0.024726
2.61457
0.0255256
2.63367
0.0265875
2.65079
0.0278746
2.66577
0.0293476
2.67852
0.0309637
2.68898
0.0326739
2.69714
0.034424
2.70305
0.0361549
2.70681
0.0378044
2.70858
0.0393097
2.70861
0.0406087
2.70716
0.0416441
2.70456
0.0423652
2.7012
0.0427297
2.69748
0.0427071
2.69382
0.0422778
2.69065
0.0414352
2.68837
0.0401861
2.6874
0.0385512
2.68809
0.0365656
2.69076
0.0342772
2.69565
0.0317453
2.70297
0.0290375
2.71282
0.0262263
2.72525
0.0233864
2.74021
0.0205916
2.75759
0.0179136
2.77723
0.0154191
2.79889
0.0131665
2.82229
0.0112023
2.84712
0.00955897
2.87306
0.00825302
2.89977
0.00728433
2.92693
0.00663884
2.95426
0.00628929
2.9815
0.00619793
3.00845
0.00632125
3.03494
0.00661459
3.06085
0.0070349
3.08609
0.00754267
3.11063
0.00810389
3.13445
0.00868917
3.15754
0.00927212
3.17995
0.00982778
3.20173
0.0103312
3.22296
0.0107551
3.24378
0.0110687
3.26432
0.0112399
3.28476
0.0112361
3.30533
0.0110224
3.32627
0.010563
3.34785
0.00982638
3.37039
0.00878767
3.39423
0.00742687
3.4197
0.00572495
3.44719
0.0036657
3.47705
0.00123269
3.50971
-0.00159161
3.54556
-0.00482677
3.58505
-0.0084967
3.62866
-0.0126336
3.67691
-0.0172808
3.73036
-0.0224922
3.78966
-0.028335
3.85551
-0.0348902
3.92875
-0.0422569
4.0103
-0.0505535
4.10125
-0.0599214
4.20284
-0.0705231
4.3165
-0.082546
4.44386
-0.0962006
4.58681
-0.111723
4.74747
-0.129369
4.92821
-0.149392
5.13167
-0.172032
5.36065
-0.197476
5.61805
-0.225805
5.90666
-0.25692
6.22887
-0.290431
6.5863
-0.325536
6.97919
-0.360901
7.40591
-0.394609
7.86245
-0.424315
8.34256
-0.44776
8.83885
-0.463813
9.34537
-0.47391
9.86141
-0.483287
10.3952
-0.500826
10.9651
-0.536899
11.5991
-0.600686
12.3301
-0.697442
13.1889
-0.824779
14.1902
-0.966756
15.3118
-1.08626
16.4699
-1.12186
17.5143
-1.00744
18.292
-0.740773
18.7816
-0.453124
19.017
-0.199499
19.0313
0.021215
18.8381
0.228721
18.4415
0.432195
17.8712
0.605983
17.2087
0.698183
16.4841
0.760429
15.6661
0.854
14.6983
1.00384
13.5424
1.19204
12.2061
1.37254
10.7278
1.51474
9.16448
1.59987
7.57221
1.62905
5.99165
1.61762
4.44421
1.58486
2.93484
1.54733
1.4571
1.51669
1.49987
7.34025
11.2782
7.32696
7.38014
6.18779
4.60859
5.13105
2.96543
4.33198
2.00823
3.76754
1.43955
3.37535
1.08869
3.09662
0.859428
2.89107
0.699658
2.73471
0.581786
2.61355
0.490843
2.51909
0.418261
2.44579
0.358834
2.38985
0.309225
2.34845
0.267204
2.31941
0.231231
2.30097
0.200217
2.29166
0.173374
2.29019
0.15012
2.29541
0.13002
2.3063
0.112737
2.32188
0.0980038
2.34126
0.0855961
2.36361
0.0753156
2.38815
0.0669768
2.41419
0.0603973
2.4411
0.0553957
2.4683
0.0517913
2.49533
0.0494087
2.52177
0.0480837
2.54728
0.0476698
2.57159
0.0480425
2.59444
0.0490981
2.61563
0.050751
2.63496
0.0529245
2.65226
0.0555469
2.66739
0.0585432
2.68023
0.0618291
2.69073
0.0653082
2.69887
0.0688705
2.7047
0.072397
2.70831
0.0757606
2.70988
0.0788322
2.70964
0.0814873
2.70788
0.083609
2.70493
0.0850944
2.70118
0.0858575
2.69705
0.0858337
2.69298
0.0849819
2.6894
0.0832878
2.68674
0.0807655
2.68542
0.0774588
2.6858
0.0734392
2.68822
0.0688049
2.69294
0.0636761
2.70016
0.0581891
2.70998
0.0524912
2.72245
0.0467342
2.73753
0.041071
2.7551
0.0356496
2.77498
0.0306061
2.79692
0.0260588
2.82065
0.0221027
2.84582
0.0188023
2.87209
0.0161916
2.89912
0.0142713
2.92658
0.01301
2.95417
0.0123491
2.98163
0.0122101
3.00874
0.0125028
3.03536
0.0131339
3.06136
0.0140145
3.08666
0.0150651
3.11122
0.0162172
3.13503
0.0174143
3.15809
0.0186069
3.18045
0.0197471
3.20215
0.020785
3.22328
0.0216662
3.24395
0.0223309
3.26431
0.0227127
3.28455
0.0227412
3.30487
0.0223448
3.32553
0.0214554
3.34681
0.0200123
3.36903
0.0179633
3.39252
0.0152664
3.41764
0.0118847
3.44475
0.00778515
3.47423
0.00293786
3.50647
-0.00268705
3.54189
-0.00912579
3.58091
-0.0164276
3.62402
-0.024657
3.6717
-0.0338968
3.72452
-0.0442512
3.7831
-0.0558519
3.84815
-0.0688593
3.92045
-0.08347
4.00094
-0.0999181
4.09065
-0.118482
4.19082
-0.139486
4.30284
-0.163306
4.42834
-0.19037
4.56917
-0.221155
4.72744
-0.256176
4.90557
-0.295967
5.10623
-0.341038
5.33232
-0.391816
5.58694
-0.448544
5.87315
-0.511126
6.19377
-0.57891
6.55093
-0.650411
6.94549
-0.722998
7.37621
-0.792687
7.839
-0.854265
8.32651
-0.902184
8.82875
-0.932719
9.33599
-0.94751
9.84387
-0.957191
10.3591
-0.98167
10.9013
-1.04434
11.5024
-1.16625
12.2028
-1.36153
13.0469
-1.63115
14.0707
-1.95057
15.2762
-2.24831
16.5843
-2.38187
17.781
-2.15272
18.5796
-1.49063
19.0352
-0.863478
19.2378
-0.359928
19.2388
0.0600842
19.0415
0.466454
18.6153
0.899512
17.9634
1.29927
17.271
1.43204
16.5777
1.49514
15.8159
1.65723
14.8865
1.97472
13.7229
2.39699
12.3483
2.78824
10.8129
3.0909
9.19366
3.25941
7.56078
3.30175
5.95888
3.25895
4.40668
3.17621
2.90421
3.08892
1.44028
3.02022
2.98311
3.4422
7.83608
4.55541
6.26749
4.54463
4.62417
4.17384
3.35981
3.76331
2.48106
3.41668
1.88924
3.14609
1.48672
2.93685
1.20327
2.7732
0.995025
2.64377
0.835848
2.54097
0.710083
2.45966
0.608035
2.39619
0.523469
2.34783
0.452227
2.31248
0.391453
2.28839
0.339135
2.27413
0.293826
2.2684
0.254472
2.27009
0.220289
2.27813
0.190684
2.29157
0.165199
2.30947
0.143467
2.33098
0.125178
2.35527
0.110054
2.38157
0.0978283
2.40919
0.0882343
2.43749
0.0810007
2.46592
0.0758531
2.49401
0.0725225
2.52136
0.0707558
2.54766
0.0703284
2.57264
0.0710521
2.59609
0.0727754
2.6178
0.0753733
2.63758
0.0787417
2.65526
0.082783
2.67067
0.0873935
2.68371
0.0924513
2.69429
0.097813
2.7024
0.103313
2.70806
0.108766
2.71138
0.113975
2.71254
0.118741
2.71176
0.122871
2.70936
0.126185
2.70569
0.128523
2.70116
0.129751
2.6962
0.129768
2.69128
0.128509
2.68687
0.125951
2.68343
0.122114
2.6814
0.117066
2.68117
0.110917
2.68309
0.10382
2.68746
0.0959601
2.69446
0.0875471
2.70423
0.0788091
2.71679
0.0699827
2.73211
0.0613052
2.75005
0.0530062
2.77043
0.045298
2.79297
0.0383638
2.81735
0.0323503
2.84321
0.027361
2.87017
0.0234476
2.89786
0.0206088
2.92592
0.0187922
2.95403
0.0179016
2.98192
0.0178086
3.00937
0.0183665
3.03624
0.0194258
3.06241
0.0208462
3.08781
0.0225071
3.11242
0.0243092
3.13622
0.0261712
3.15923
0.0280243
3.18149
0.0298013
3.20303
0.0314307
3.22394
0.032833
3.24433
0.0339173
3.26434
0.034581
3.28415
0.0347138
3.30398
0.0342049
3.32409
0.0329494
3.34476
0.0308541
3.36633
0.0278411
3.38914
0.0238448
3.41354
0.0188129
3.43991
0.0127027
3.46861
0.00547595
3.50003
-0.00290808
3.53458
-0.0125009
3.57268
-0.02337
3.61478
-0.0356061
3.66134
-0.0493285
3.71292
-0.0646898
3.77009
-0.0818817
3.83354
-0.101141
3.904
-0.122752
3.98237
-0.147066
4.06965
-0.174491
4.167
-0.205513
4.27578
-0.240695
4.39755
-0.280681
4.53415
-0.3262
4.68765
-0.37805
4.8605
-0.437076
5.05545
-0.504127
5.27559
-0.579971
5.52436
-0.665162
5.80536
-0.759826
6.12227
-0.863325
6.47835
-0.973785
6.8758
-1.0875
7.31463
-1.19827
7.79109
-1.29712
8.29597
-1.37301
8.81396
-1.41608
9.32631
-1.42455
9.81939
-1.41419
10.2964
-1.42174
10.7794
-1.48939
11.3071
-1.6545
11.9332
-1.94614
12.7275
-2.38055
13.773
-2.94532
15.1426
-3.55735
16.8135
-3.97655
18.443
-3.69639
19.2068
-2.18755
19.5388
-1.14029
19.6578
-0.430899
19.6451
0.117026
19.4746
0.683927
19.015
1.40853
18.0961
2.26939
17.3341
2.2452
16.7398
2.13996
16.1334
2.31391
15.3087
2.84976
14.1141
3.64185
12.651
4.30084
10.9814
4.80842
9.236
5.05091
7.51799
5.06398
5.87614
4.94336
4.31939
4.77424
2.83551
4.61328
1.40317
4.49289
4.42945
1.87361
5.96568
2.91209
5.23702
3.28027
4.27915
3.29509
3.39984
3.17149
2.6984
3.01416
2.16885
2.86264
1.77268
2.7286
1.4721
2.61402
1.23878
2.518
1.05328
2.43892
0.902511
2.37509
0.777598
2.32494
0.672449
2.28706
0.58279
2.26016
0.505577
2.24309
0.438608
2.23477
0.380264
2.23422
0.32935
2.24048
0.284964
2.25265
0.246425
2.26983
0.213199
2.29118
0.184859
2.31585
0.161036
2.34304
0.141393
2.37198
0.125599
2.40196
0.113309
2.43235
0.104161
2.46259
0.0977799
2.49224
0.0937926
2.52093
0.0918458
2.54838
0.0916301
2.57437
0.0928905
2.59869
0.095429
2.62117
0.099095
2.64162
0.103771
2.65987
0.109347
2.67573
0.115702
2.68907
0.122683
2.69979
0.130103
2.70785
0.137731
2.71327
0.145313
2.71615
0.152571
2.71667
0.159229
2.71508
0.165018
2.7117
0.169686
2.70692
0.173012
2.70118
0.174811
2.69494
0.174936
2.68873
0.173296
2.68304
0.169855
2.67838
0.16464
2.67525
0.157742
2.67407
0.149316
2.67523
0.139573
2.67904
0.128772
2.68572
0.117205
2.6954
0.10519
2.70811
0.0930579
2.72381
0.0811394
2.74235
0.069755
2.76349
0.0591996
2.78695
0.0497327
2.81236
0.0415624
2.83929
0.0348347
2.86733
0.0296222
2.89604
0.0259199
2.92503
0.0236475
2.95394
0.0226593
2.98248
0.0227612
3.01043
0.0237348
3.03766
0.0253614
3.06407
0.0274436
3.08961
0.0298165
3.11428
0.0323526
3.13807
0.034953
3.16101
0.0375353
3.18312
0.0400223
3.20443
0.0423269
3.22503
0.0443454
3.245
0.0459541
3.26448
0.0470102
3.28364
0.0473586
3.30273
0.0468435
3.32199
0.0453184
3.34175
0.0426525
3.36234
0.03874
3.38411
0.0334961
3.40743
0.0268572
3.43268
0.0187766
3.46022
0.00921297
3.49044
-0.00187831
3.52372
-0.0145545
3.56045
-0.0288975
3.60105
-0.0450199
3.64598
-0.0630704
3.69573
-0.0832443
3.75084
-0.105785
3.81192
-0.130999
3.87969
-0.159261
3.95495
-0.19102
4.03862
-0.226816
4.13182
-0.267285
4.23579
-0.313173
4.35204
-0.365346
4.4823
-0.424788
4.62863
-0.492605
4.79345
-0.57
4.9796
-0.658235
5.1904
-0.758558
5.42969
-0.872054
5.70186
-0.999394
6.01181
-1.14042
6.36463
-1.29346
6.76502
-1.45436
7.21578
-1.61502
7.7152
-1.76185
8.25291
-1.87508
8.80549
-1.93171
9.33667
-1.91715
9.81184
-1.84917
10.2288
-1.7969
10.6143
-1.83144
11.0154
-2.00977
11.4988
-2.38006
12.1627
-2.98918
13.1609
-3.87776
14.7234
-5.03489
17.0936
-6.22451
19.9519
-6.41679
20.254
-2.42039
20.2482
-1.07896
20.2057
-0.339726
20.212
0.15765
20.1992
0.749321
19.8759
1.79111
18.0719
4.13914
17.2288
3.15176
16.9137
2.51589
16.6693
2.61882
16.1008
3.47991
14.7731
5.03263
13.1585
5.97736
11.2239
6.80201
9.24907
7.08043
7.39737
6.96603
5.70702
6.68039
4.15843
6.36675
2.71511
6.09865
1.33973
5.90943
5.81262
1.14495
4.84251
1.95422
4.46331
2.40096
3.89328
2.59365
3.30014
2.64193
2.76976
2.61799
2.32631
2.56206
1.96473
2.49528
1.67096
2.42852
1.43065
2.36723
1.23187
2.31401
1.06535
2.26994
0.924186
2.23528
0.803208
2.20985
0.698594
2.19319
0.607493
2.18474
0.527772
2.18386
0.457824
2.18983
0.396437
2.20194
0.34269
2.21942
0.295879
2.24149
0.255452
2.26736
0.220964
2.29621
0.192025
2.32725
0.168267
2.35969
0.149311
2.39281
0.134743
2.42596
0.124108
2.4586
0.116917
2.49029
0.112673
2.52071
0.110903
2.54964
0.111196
2.5769
0.113228
2.60236
0.116759
2.62585
0.121634
2.6472
0.127742
2.66622
0.134989
2.68271
0.143252
2.69649
0.152358
2.70742
0.162072
2.71543
0.172096
2.72053
0.182087
2.72281
0.191679
2.72246
0.200502
2.71975
0.208203
2.71503
0.214452
2.70872
0.218958
2.7013
0.221474
2.6933
0.221806
2.68528
0.219824
2.67782
0.215477
2.67149
0.208794
2.66682
0.199894
2.66433
0.188983
2.66443
0.176339
2.66748
0.162304
2.67371
0.147267
2.68327
0.131647
2.69619
0.11588
2.71242
0.100404
2.73179
0.0856394
2.75403
0.0719813
2.77878
0.0597763
2.80563
0.0493064
2.83408
0.0407697
2.86363
0.034265
2.89377
0.0297829
2.92404
0.0272042
2.95404
0.0263147
2.98345
0.0268314
3.01206
0.0284402
3.03974
0.0308338
3.06644
0.0337438
3.09215
0.0369607
3.11688
0.0403334
3.14066
0.0437568
3.1635
0.0471503
3.18542
0.0504374
3.20645
0.0535241
3.22664
0.0562858
3.24605
0.0585629
3.26482
0.0601665
3.28313
0.0608883
3.3012
0.0605162
3.31933
0.0588523
3.33784
0.055725
3.35709
0.0509961
3.37747
0.0445663
3.39935
0.0363693
3.42312
0.0263599
3.44913
0.0145047
3.47776
0.000766228
3.50937
-0.0149128
3.54433
-0.0326174
3.583
-0.0524736
3.62581
-0.074655
3.67319
-0.0993891
3.72562
-0.12697
3.78366
-0.157762
3.84793
-0.192216
3.91915
-0.230877
3.99816
-0.274399
4.08593
-0.323561
4.18362
-0.379285
4.29259
-0.442648
4.41448
-0.514898
4.55123
-0.597459
4.70521
-0.691933
4.87928
-0.800079
5.07691
-0.923768
5.30235
-1.06486
5.56084
-1.22497
5.85876
-1.40509
6.20373
-1.60477
6.60437
-1.82074
7.06895
-2.04451
7.60196
-2.25845
8.19628
-2.4309
8.82004
-2.51378
9.40465
-2.45608
9.86411
-2.26027
10.1942
-2.07705
10.436
-2.0217
10.6451
-2.16497
10.8897
-2.56649
11.2742
-3.30844
12.0038
-4.52944
13.5338
-6.46318
16.9013
-9.43182
23.9483
-13.3294
21.5955
-23.4865
20.9874
-7.60036
20.7031
-0.113808
20.8037
1.17599
21.241
3.95187
22.2239
9.30752
17.0845
9.36051
16.593
3.71365
17.0167
2.15622
17.5303
2.16947
17.6536
3.42623
15.7178
7.04549
13.9832
7.78918
11.5023
9.35641
9.13467
9.51417
7.11173
9.04703
5.39338
8.45025
3.89033
7.91662
2.5259
7.50682
1.24292
7.23444
7.09931
0.765744
4.13822
1.38419
3.9234
1.80782
3.5706
2.06326
3.16591
2.19849
2.76772
2.2564
2.40478
2.26828
2.08632
2.25498
1.81164
2.22973
1.57596
2.20072
1.37348
2.17284
1.19875
2.14896
1.04706
2.13067
0.914605
2.11874
0.798329
2.11347
0.695842
2.11479
0.605275
2.12247
0.525184
2.13609
0.45445
2.15513
0.392218
2.17899
0.337828
2.20701
0.29077
2.23842
0.250626
2.27245
0.217031
2.30829
0.189618
2.34512
0.167985
2.38218
0.15166
2.41877
0.140087
2.45436
0.132643
2.48852
0.128669
2.52101
0.127541
2.55167
0.128719
2.58044
0.131795
2.60723
0.136508
2.63196
0.142722
2.65445
0.15038
2.67448
0.159435
2.69182
0.169793
2.70621
0.181275
2.71745
0.193591
2.72542
0.206361
2.73012
0.219136
2.73163
0.231437
2.73016
0.242787
2.726
0.252733
2.71953
0.26086
2.71123
0.2668
2.70163
0.270233
2.69132
0.270905
2.68094
0.268639
2.67114
0.263357
2.66259
0.25509
2.65591
0.243989
2.65168
0.230316
2.6504
0.214431
2.65244
0.196777
2.65809
0.177851
2.6675
0.158193
2.68072
0.138358
2.69766
0.118903
2.71813
0.100369
2.74182
0.0832646
2.76831
0.0680423
2.79709
0.0550761
2.82758
0.0446337
2.85915
0.0368506
2.89119
0.0317106
2.92315
0.0290428
2.95455
0.0285373
2.98506
0.0297858
3.01445
0.0323389
3.04265
0.0357697
3.06966
0.0397226
3.09552
0.0439394
3.1203
0.0482577
3.14405
0.0525867
3.16679
0.0568721
3.18851
0.0610573
3.20921
0.065053
3.22891
0.0687184
3.24766
0.0718556
3.26555
0.0742169
3.28276
0.0755248
3.29954
0.0754962
3.3162
0.073866
3.33311
0.0704124
3.35066
0.0649683
3.36928
0.0574216
3.38934
0.0477089
3.41126
0.0358051
3.43539
0.0216971
3.46208
0.00536718
3.49167
-0.0132262
3.52447
-0.0341666
3.56082
-0.0575822
3.60108
-0.0836626
3.64561
-0.112663
3.69483
-0.144912
3.74921
-0.180828
3.80927
-0.220925
3.87563
-0.265828
3.94899
-0.316292
4.0302
-0.373222
4.12026
-0.437697
4.22034
-0.510992
4.33192
-0.594608
4.45676
-0.690289
4.59707
-0.800058
4.75559
-0.926221
4.93582
-1.07138
5.14224
-1.23837
5.38072
-1.43021
5.65908
-1.64975
5.98776
-1.89914
6.3806
-2.17836
6.85501
-2.48223
7.42952
-2.7937
8.1134
-3.07085
8.87774
-3.22625
9.60047
-3.11666
10.0473
-2.64412
10.2496
-2.21831
10.2927
-2.00505
10.2436
-2.05534
10.1477
-2.40716
10.0532
-3.14489
10.07
-4.46783
10.5652
-6.86406
13.0038
-11.7267
13.7911
-15.7404
37.4817
-30.7641
28.474
-24.2003
21.9929
-4.21161
23.5796
11.4191
26.5966
13.7643
22.2769
6.65834
11.4377
1.48468
15.0355
2.06015
17.0299
2.56122
18.7871
5.19494
21.2728
11.0212
16.4615
11.9338
15.5504
8.78103
11.6601
13.3305
8.66752
12.5826
6.51495
11.2643
4.85975
10.161
3.48052
9.34514
2.25352
8.77901
1.10778
8.42304
8.25125
0.550924
3.68893
1.0314
3.55647
1.40313
3.32452
1.66508
3.03759
1.83555
2.73317
1.93795
2.43586
1.9936
2.15886
2.0193
1.90748
2.02726
1.68251
2.02598
1.48242
2.02116
1.3048
2.01651
1.14703
2.01439
1.00666
2.01626
0.881563
2.0229
0.769923
2.0347
0.670265
2.05174
0.5814
2.07385
0.502389
2.10074
0.432507
2.13194
0.371203
2.16686
0.318058
2.20482
0.27274
2.24504
0.234951
2.28666
0.204374
2.32879
0.180617
2.3706
0.163162
2.41133
0.151346
2.45039
0.144369
2.48739
0.141361
2.52218
0.141474
2.55475
0.143993
2.58515
0.148414
2.61345
0.154474
2.63961
0.162113
2.6635
0.171387
2.68484
0.182362
2.7033
0.195016
2.71852
0.209173
2.73022
0.224486
2.7382
0.240461
2.74242
0.256508
2.74298
0.272003
2.7401
0.286338
2.73412
0.298951
2.72547
0.309334
2.71467
0.317033
2.7023
0.321646
2.68906
0.32284
2.67565
0.320372
2.66287
0.314126
2.65149
0.304129
2.64224
0.290568
2.6358
0.273775
2.63274
0.254213
2.63352
0.232441
2.63843
0.209094
2.64767
0.184845
2.66126
0.160387
2.67913
0.136416
2.70103
0.113608
2.7266
0.0926067
2.75535
0.073996
2.78665
0.0582688
2.81979
0.0457874
2.85401
0.0367436
2.88853
0.0311207
2.92265
0.0286774
2.9558
0.0289675
2.98761
0.0313989
3.01789
0.0353271
3.04661
0.0401558
3.07387
0.0454153
3.09984
0.0507991
3.12463
0.0561572
3.14834
0.0614501
3.17097
0.0666867
3.1925
0.0718627
3.21288
0.0769124
3.23205
0.0816822
3.25002
0.0859269
3.26685
0.0893245
3.28273
0.0915038
3.29791
0.0920825
3.31274
0.09071
3.32766
0.0871018
3.34312
0.0810528
3.35956
0.0724483
3.37744
0.0612493
3.39715
0.0474634
3.41906
0.0311219
3.44349
0.0122433
3.47073
-0.00918691
3.50105
-0.0332316
3.53474
-0.0600171
3.57208
-0.0897388
3.61336
-0.12267
3.65891
-0.15917
3.70911
-0.199695
3.76437
-0.244806
3.82516
-0.295193
3.89206
-0.351689
3.96573
-0.415301
4.04696
-0.487241
4.13673
-0.568957
4.23624
-0.662173
4.34699
-0.768936
4.4709
-0.891665
4.61044
-1.03321
4.76882
-1.19694
4.9504
-1.38679
5.16118
-1.60737
5.4097
-1.86405
5.70853
-2.16287
6.07673
-2.51004
6.54354
-2.90996
7.15237
-3.35855
7.958
-3.82276
8.98733
-4.18262
10.073
-4.09997
10.4731
-2.96123
10.4628
-2.13836
10.2424
-1.72145
9.89181
-1.6436
9.40998
-1.86362
8.73022
-2.401
7.67383
-3.34376
5.70253
-4.82162
8.99004
-6.78484
-1.23253
-11.1014
44.0454
-4.88777
48.4627
-9.02457
37.6236
2.50786
25.9248
10.1741
19.4907
14.8953
17.1032
19.3464
12.0132
21.2512
15.5366
24.0743
19.6636
24.0339
24.6134
15.2243
22.1855
10.5845
13.3087
9.49526
20.0999
23.5361
10.9122
22.5939
7.34927
16.2204
5.41166
13.267
4.04385
11.5852
2.91438
10.5248
1.89755
9.84187
0.935991
9.42806
9.23182
0.418467
3.39475
0.799452
3.3052
1.11619
3.14144
1.36065
2.92764
1.53824
2.68778
1.66094
2.44076
1.74222
2.19926
1.79432
1.97066
1.82718
1.75849
1.84836
1.56391
1.86339
1.38668
1.87614
1.22586
1.88929
1.08023
1.90462
0.948531
1.92324
0.829576
1.94584
0.722316
1.97272
0.625866
2.00397
0.539514
2.03944
0.462715
2.07879
0.395071
2.12154
0.336307
2.16704
0.286228
2.21446
0.244667
2.2629
0.211414
2.31134
0.186135
2.35879
0.168296
2.40435
0.157113
2.44738
0.151553
2.48751
0.150429
2.5247
0.152561
2.55917
0.156973
2.59121
0.163043
2.62109
0.170543
2.64889
0.179577
2.67448
0.190426
2.6975
0.203365
2.71746
0.218507
2.73384
0.235701
2.74619
0.254518
2.75425
0.274299
2.75792
0.294253
2.75732
0.31356
2.75272
0.331452
2.74451
0.347249
2.73317
0.360352
2.71928
0.37022
2.7035
0.376354
2.68659
0.378314
2.66941
0.375766
2.65288
0.368531
2.63792
0.356624
2.62544
0.340274
2.61624
0.319904
2.61097
0.296105
2.61017
0.26959
2.61418
0.24115
2.62321
0.211619
2.63729
0.181848
2.65632
0.152686
2.68003
0.124965
2.70799
0.0994877
2.73962
0.0769977
2.77417
0.0581471
2.81075
0.0434384
2.84839
0.0331548
2.88608
0.027294
2.92294
0.0255252
2.95823
0.0272051
2.99154
0.0314676
3.02271
0.0373738
3.05186
0.0440771
3.07926
0.0509547
3.1052
0.0576606
3.12992
0.0641015
3.15357
0.0703532
3.17615
0.0765501
3.19755
0.082786
3.21765
0.0890447
3.2363
0.0951657
3.25341
0.100843
3.26903
0.10565
3.28331
0.109082
3.29653
0.110621
3.30914
0.109796
3.32162
0.106233
3.33451
0.0996962
3.34836
0.0900771
3.36365
0.0773811
3.38081
0.0616857
3.40018
0.0430879
3.42206
0.0216716
3.44668
-0.00253119
3.47427
-0.0295542
3.50502
-0.0595109
3.53914
-0.0925984
3.57686
-0.129102
3.61839
-0.169399
3.664
-0.213969
3.71398
-0.263405
3.76867
-0.318437
3.82845
-0.379951
3.89379
-0.449028
3.96524
-0.526976
4.04351
-0.615376
4.12947
-0.716132
4.22426
-0.831535
4.32936
-0.964343
4.44671
-1.11788
4.57898
-1.29619
4.72982
-1.50419
4.9045
-1.74805
5.11088
-2.03561
5.36136
-2.37725
5.67681
-2.78718
6.09495
-3.28557
6.68816
-3.90077
7.59814
-4.66356
9.06998
-5.54383
11.2117
-6.04809
11.296
-2.95364
10.8798
-1.65562
10.3203
-1.10495
9.67179
-0.94147
8.8726
-1.01159
7.78746
-1.2628
6.19596
-1.699
3.73931
-2.31257
4.67344
-3.39069
4.98114
-5.18096
39.9086
-2.88906
59.9951
8.46511
45.2898
17.2081
30.6459
24.8134
23.9418
34.7095
19.0081
41.7617
14.8362
45.1446
15.4962
45.6324
10.8541
41.1323
19.9735
35.1349
21.0962
34.1717
27.3495
44.2274
19.1577
39.7735
4.53875
19.7831
4.39586
16.4164
3.72985
13.9872
2.98345
12.3838
2.23145
11.3259
1.48375
10.6356
0.739748
10.2159
10.0166
0.328916
3.19618
0.63569
3.13024
0.902393
3.00638
1.12079
2.83873
1.29122
2.64295
1.41944
2.43308
1.51362
2.21997
1.58216
2.01115
1.6326
1.81134
1.67113
1.62318
1.70256
1.4479
1.73051
1.28578
1.75759
1.13663
1.78566
0.999917
1.81598
0.875033
1.84939
0.761339
1.88637
0.65826
1.92717
0.565322
1.97179
0.482182
2.02003
0.408628
2.07146
0.344573
2.12547
0.29002
2.18121
0.245006
2.23762
0.209509
2.2935
0.183336
2.3476
0.16599
2.39879
0.15656
2.44625
0.153692
2.48964
0.155706
2.52912
0.160892
2.56524
0.167868
2.59871
0.175851
2.63012
0.184723
2.65974
0.194901
2.68742
0.207073
2.71264
0.221885
2.73465
0.239683
2.75265
0.260361
2.76597
0.283355
2.7742
0.307748
2.77722
0.332442
2.77521
0.35634
2.76851
0.37848
2.75761
0.398071
2.74304
0.414448
2.72541
0.426992
2.70546
0.43509
2.68404
0.438158
2.66217
0.435714
2.64097
0.427478
2.62157
0.413439
2.60507
0.393879
2.59244
0.369347
2.58446
0.340604
2.58173
0.308558
2.58465
0.274194
2.59344
0.238535
2.60813
0.202606
2.6286
0.167425
2.65455
0.133994
2.6855
0.103296
2.72077
0.0762771
2.75946
0.0538036
2.80047
0.0365868
2.84252
0.0250709
2.88431
0.0193067
2.92462
0.0188587
2.9625
0.0227991
2.99745
0.0298386
3.02942
0.0385758
3.05874
0.0477839
3.08596
0.0566304
3.11164
0.0647559
3.13617
0.0722099
3.15977
0.0792903
3.18238
0.0863574
3.20381
0.0936726
3.22377
0.101304
3.24197
0.109085
3.25822
0.116624
3.27247
0.123344
3.28485
0.128551
3.29571
0.131525
3.30557
0.131618
3.31508
0.128345
3.32489
0.121424
3.33567
0.110786
3.34796
0.0965203
3.36221
0.078813
3.37877
0.0578774
3.39786
0.0338876
3.41966
0.00694702
3.44431
-0.0229405
3.47193
-0.0558719
3.50264
-0.0920422
3.53656
-0.131742
3.57382
-0.175358
3.61456
-0.223381
3.65895
-0.276413
3.70715
-0.335197
3.75937
-0.400646
3.81584
-0.473874
3.87684
-0.556242
3.94276
-0.64941
4.01407
-0.755397
4.09145
-0.876661
4.17582
-1.01619
4.26841
-1.17765
4.37097
-1.36553
4.48596
-1.58544
4.61693
-1.84456
4.76924
-2.15237
4.95143
-2.52208
5.17842
-2.97349
5.47975
-3.53984
5.92536
-4.28627
6.71787
-5.36796
8.56571
-7.23854
14.3062
-11.4909
12.594
-12.653
11.4304
-6.01542
10.4838
-2.07503
9.60167
-0.289609
8.6214
0.0973481
7.35126
0.567602
5.58238
1.24035
2.66119
0.646873
2.88317
-0.899261
7.27304
-1.94676
51.2628
20.0536
68.7381
36.3897
52.8951
33.0494
40.5421
37.1664
30.994
44.2522
22.391
50.352
15.324
52.1796
10.9962
49.9044
4.85669
47.2075
19.0103
51.3358
31.152
52.0817
22.8956
45.237
-0.832693
24.7551
1.17199
18.5982
1.96665
15.669
2.12653
13.8761
1.92552
12.6338
1.54117
11.7579
1.06398
11.1585
0.540455
10.7833
10.6025
0.262967
3.06058
0.511839
3.00839
0.734734
2.90879
0.925017
2.77069
1.08135
2.60475
1.20633
2.42144
1.3048
2.22973
1.38236
2.03664
1.44445
1.84722
1.49584
1.66491
1.54045
1.49181
1.58135
1.32913
1.62089
1.17737
1.66078
1.03664
1.70229
0.906778
1.74631
0.787494
1.79344
0.678487
1.84403
0.579507
1.89824
0.490407
1.95597
0.411181
2.01691
0.341966
2.08046
0.283027
2.14571
0.234691
2.21145
0.197249
2.27616
0.170782
2.33817
0.154943
2.39592
0.148722
2.44827
0.15031
2.49483
0.157241
2.53609
0.166919
2.57322
0.17729
2.60758
0.187345
2.6403
0.197207
2.67191
0.207872
2.70223
0.220743
2.73044
0.237106
2.75533
0.257686
2.77565
0.28243
2.79037
0.310535
2.79889
0.340654
2.80112
0.3712
2.79735
0.400665
2.7881
0.427856
2.77399
0.451922
2.75558
0.472201
2.73351
0.488042
2.70853
0.498697
2.6816
0.503358
2.65394
0.501305
2.62693
0.492086
2.60201
0.475638
2.58054
0.452323
2.5637
0.422872
2.55241
0.388285
2.54736
0.349724
2.54899
0.308419
2.55751
0.26561
2.57295
0.222511
2.59517
0.180312
2.62385
0.14019
2.65848
0.103328
2.6983
0.0709145
2.74224
0.0441104
2.78895
0.0239463
2.83676
0.011151
2.88387
0.00592324
2.92856
0.00772835
2.96954
0.0152257
3.00618
0.0264516
3.03863
0.0392533
3.06759
0.0518046
3.09409
0.0629863
3.11909
0.0724882
3.14326
0.080661
3.16684
0.0882157
3.1897
0.095895
3.21144
0.104228
3.23155
0.113402
3.24951
0.123237
3.26494
0.133216
3.27767
0.142546
3.28782
0.150252
3.2958
0.155311
3.3023
0.156814
3.30816
0.154109
3.31426
0.14688
3.3214
0.135132
3.33025
0.119108
3.34128
0.0991793
3.35478
0.0757281
3.37092
0.0490649
3.38977
0.0193786
3.41138
-0.013281
3.43576
-0.0489948
3.46294
-0.0879601
3.49294
-0.130473
3.5258
-0.176924
3.56153
-0.227794
3.60017
-0.283676
3.64171
-0.345303
3.68615
-0.41357
3.73347
-0.489584
3.78368
-0.574706
3.83677
-0.670611
3.89281
-0.779356
3.95192
-0.903465
4.01436
-1.04604
4.08053
-1.21087
4.15106
-1.40264
4.22684
-1.62718
4.30912
-1.89188
4.39954
-2.20637
4.50002
-2.58362
4.61207
-3.0419
4.73333
-3.60842
4.84367
-4.32633
4.84729
-5.26765
4.3133
-6.54362
13.1441
-8.19242
19.2316
-15.8376
15.3708
-16.0002
12.2692
-9.29089
9.98863
-1.80873
9.09165
3.49453
8.02401
4.09501
4.98891
1.46237
1.11506
0.12691
1.83567
0.832363
29.2734
1.29199
67.5989
27.9648
65.3978
38.5867
57.012
41.4352
47.6279
46.5507
37.0938
54.7863
24.2186
63.2272
13.0488
63.3486
8.29926
54.6529
8.98495
46.5206
19.7562
40.5359
24.3073
31.6985
2.41369
14.8058
-6.9896
8.80459
-1.7572
13.4127
0.173693
13.7843
0.88421
13.2119
1.04963
12.5153
0.94178
11.9122
0.688799
11.4567
0.359603
11.1565
11.0079
0.210773
2.97063
0.412247
2.92673
0.596627
2.84211
0.759079
2.72284
0.898039
2.57657
1.01463
2.41135
1.1117
2.23465
1.19294
2.05285
1.26213
1.87101
1.32275
1.69296
1.37776
1.52138
1.4296
1.35803
1.48016
1.20397
1.53091
1.0597
1.583
0.925424
1.6373
0.8011
1.69446
0.686631
1.75493
0.581939
1.81901
0.487053
1.88676
0.402162
1.95797
0.327657
2.03213
0.264122
2.10827
0.212294
2.18498
0.17294
2.26032
0.14664
2.33195
0.133431
2.39751
0.132325
2.4552
0.140915
2.5045
0.155422
2.54646
0.171704
2.58327
0.186527
2.61744
0.19857
2.65096
0.20846
2.68478
0.218239
2.71859
0.230554
2.75102
0.247761
2.78007
0.271198
2.80375
0.300833
2.82049
0.335415
2.82944
0.372867
2.83059
0.410788
2.82454
0.44703
2.81217
0.480142
2.79427
0.509353
2.77142
0.534199
2.74417
0.554094
2.71319
0.56812
2.67954
0.575102
2.64472
0.5739
2.61048
0.563763
2.5787
0.544552
2.55109
0.516758
2.52911
0.481394
2.51385
0.439806
2.50606
0.393504
2.50618
0.344024
2.51441
0.292852
2.53075
0.241398
2.55505
0.191007
2.58699
0.143014
2.62607
0.0987993
2.67149
0.0598342
2.72208
0.0276726
2.77616
0.0038372
2.83153
-0.01044
2.88567
-0.0145974
2.93605
-0.00919573
2.98076
0.00383263
3.01899
0.0214079
3.05118
0.0401111
3.07877
0.0571369
3.10359
0.0709732
3.12726
0.0815115
3.15081
0.0897025
3.17452
0.0969952
3.19803
0.104766
3.22062
0.113937
3.24139
0.124839
3.25949
0.137252
3.27427
0.15047
3.28538
0.16339
3.29288
0.174623
3.29731
0.182681
3.2996
0.186246
3.30093
0.184431
3.30251
0.176891
3.30538
0.16379
3.31032
0.145638
3.31783
0.123104
3.32811
0.0968234
3.34123
0.0672923
3.35711
0.0348039
3.37567
-0.000549964
3.3968
-0.0388537
3.42043
-0.0803231
3.44649
-0.125268
3.47493
-0.174072
3.50565
-0.2272
3.53854
-0.285208
3.57344
-0.348781
3.61013
-0.418761
3.64835
-0.496197
3.68777
-0.582394
3.72802
-0.678969
3.7687
-0.787931
3.80935
-0.911769
3.84953
-1.05355
3.88876
-1.21703
3.92652
-1.40679
3.96214
-1.62843
3.99464
-1.88883
4.02229
-2.19655
4.04173
-2.56216
4.04555
-2.99844
4.01542
-3.51906
3.90235
-4.13242
3.57131
-4.82042
2.6645
-5.48198
5.49897
-5.86328
19.069
-9.12182
22.0801
-6.81221
19.7514
0.0225699
15.2919
0.894762
9.69213
4.17778
5.39137
8.12214
3.65345
13.9088
1.82051
20.898
2.2953
31.9211
55.9462
52.9676
78.2208
59.5366
68.2463
48.561
62.1275
47.5542
55.8635
52.8149
45.5347
65.1152
24.34
84.4218
4.35317
83.3352
0.167001
58.8388
3.00026
43.6871
10.9188
32.6169
7.41454
22.0971
-3.58751
12.2544
-2.38151
11.2011
-1.38562
12.4634
-0.39863
12.8439
0.187555
12.6721
0.446534
12.3025
0.48631
11.9183
0.388557
11.5994
0.211067
11.378
11.2653
0.166867
2.91721
0.327634
2.87822
0.477351
2.80258
0.612811
2.69473
0.732819
2.56051
0.83793
2.40644
0.9299
2.23894
1.01111
2.0639
1.08408
1.88636
1.15116
1.71037
1.21442
1.53896
1.27553
1.37428
1.33589
1.21771
1.39663
1.07003
1.45868
0.931618
1.52283
0.80258
1.58976
0.682922
1.66005
0.572665
1.73412
0.471956
1.81225
0.381154
1.89444
0.300903
1.9803
0.232163
2.06892
0.1762
2.15868
0.134481
2.24711
0.108435
2.33085
0.098944
2.4061
0.105448
2.4697
0.12489
2.52079
0.151182
2.56129
0.177356
2.59532
0.198003
2.62733
0.21145
2.66074
0.219362
2.69709
0.22564
2.7358
0.235064
2.77445
0.251807
2.80971
0.278156
2.83833
0.313955
2.85794
0.357115
2.86736
0.404321
2.86683
0.451786
2.85765
0.496275
2.84138
0.536091
2.81911
0.570929
2.79132
0.600936
2.75819
0.625813
2.72017
0.644398
2.67834
0.654846
2.63458
0.655251
2.59127
0.644347
2.5509
0.621885
2.51573
0.588608
2.48752
0.545988
2.46755
0.495895
2.45658
0.440319
2.45501
0.381182
2.46296
0.320244
2.48036
0.259089
2.50705
0.199175
2.54277
0.141933
2.5871
0.0888956
2.63933
0.0418295