/*--------------------------------*- C++ -*----------------------------------*\
| =========                 |                                                 |
| \\      /  F ield         | OpenFOAM: The Open Source CFD Toolbox           |
|  \\    /   O peration     | Version:  2.1.0                                 |
|   \\  /    A nd           | Web:      www.OpenFOAM.org                      |
|    \\/     M anipulation  |                                                 |
\*---------------------------------------------------------------------------*/
FoamFile
{
    version     2.0;
    format      ascii;
    class       volScalarField;
    location    "40150";
    object      pw;
}
// * * * * * * * * * * * * * * * * * * * * * * * * * * * * * * * * * * * * * //

dimensions      [1 -1 -2 0 0 0 0];

internalField   nonuniform List<scalar> 
15000
(
6362.99
6344.4
6333.17
6325.42
6319.56
6314.85
6310.87
6307.36
6304.18
6301.22
6298.44
6295.79
6293.24
6290.77
6288.36
6285.99
6283.65
6281.34
6279.04
6276.74
6274.43
6272.12
6269.79
6267.44
6265.08
6262.68
6260.27
6257.82
6255.35
6252.86
6250.34
6247.79
6245.22
6242.62
6240.01
6237.38
6234.73
6232.06
6229.38
6226.69
6224
6221.29
6218.59
6215.88
6213.17
6210.46
6207.76
6205.06
6202.36
6199.66
6196.97
6194.28
6191.6
6188.91
6186.22
6183.52
6180.82
6178.11
6175.38
6172.64
6169.88
6167.11
6164.31
6161.49
6158.64
6155.77
6152.87
6149.94
6146.98
6144
6140.99
6137.96
6134.9
6131.81
6128.7
6125.57
6122.41
6119.23
6116.03
6112.81
6109.56
6106.3
6103.01
6099.71
6096.38
6093.03
6089.66
6086.27
6082.85
6079.4
6075.92
6072.41
6068.87
6065.28
6061.66
6057.98
6054.25
6050.46
6046.6
6042.67
6038.66
6034.56
6030.36
6026.04
6021.6
6017.01
6012.27
6007.34
6002.21
5996.84
5991.23
5985.32
5979.09
5972.5
5965.53
5958.12
5950.26
5941.91
5933.08
5923.73
5913.87
5903.47
5892.51
5880.91
5868.58
5855.39
5841.2
5825.89
5809.42
5791.9
5773.61
5754.83
5735.81
5716.78
5697.94
5679.5
5661.63
5644.42
5627.94
5612.27
5597.57
5584.03
5571.83
5561.1
5551.93
5544.36
5538.37
5533.93
5530.99
5529.53
6344.37
6337.03
6329.7
6323.52
6318.39
6314.05
6310.29
6306.91
6303.81
6300.92
6298.19
6295.58
6293.06
6290.61
6288.22
6285.87
6283.55
6281.25
6278.96
6276.67
6274.37
6272.07
6269.75
6267.4
6265.04
6262.65
6260.24
6257.8
6255.33
6252.83
6250.31
6247.77
6245.19
6242.6
6239.98
6237.35
6234.7
6232.03
6229.35
6226.66
6223.96
6221.25
6218.55
6215.84
6213.13
6210.42
6207.71
6205.01
6202.32
6199.62
6196.93
6194.25
6191.56
6188.88
6186.19
6183.49
6180.79
6178.08
6175.36
6172.62
6169.87
6167.09
6164.3
6161.48
6158.63
6155.76
6152.86
6149.93
6146.98
6144
6140.99
6137.95
6134.89
6131.8
6128.69
6125.56
6122.4
6119.22
6116.02
6112.79
6109.55
6106.29
6103
6099.7
6096.37
6093.02
6089.66
6086.26
6082.85
6079.4
6075.93
6072.42
6068.88
6065.3
6061.67
6058
6054.28
6050.49
6046.65
6042.72
6038.72
6034.63
6030.44
6026.14
6021.71
6017.14
6012.41
6007.51
6002.4
5997.07
5991.48
5985.61
5979.42
5972.87
5965.92
5958.54
5950.71
5942.38
5933.55
5924.21
5914.37
5904.01
5893.11
5881.61
5869.4
5856.36
5842.29
5827.01
5810.43
5792.65
5774.07
5755.03
5735.79
5716.55
5697.51
5678.9
5660.93
5643.66
5627.09
5611.27
5596.38
5582.66
5570.31
5559.5
5550.3
5542.74
5536.79
5532.38
5529.47
5528.03
6333.09
6329.65
6325.1
6320.55
6316.38
6312.61
6309.2
6306.05
6303.11
6300.34
6297.7
6295.16
6292.7
6290.3
6287.95
6285.64
6283.35
6281.08
6278.81
6276.54
6274.26
6271.97
6269.66
6267.33
6264.97
6262.59
6260.18
6257.75
6255.28
6252.79
6250.26
6247.72
6245.14
6242.55
6239.93
6237.29
6234.64
6231.97
6229.28
6226.59
6223.89
6221.18
6218.47
6215.75
6213.04
6210.33
6207.63
6204.93
6202.23
6199.54
6196.85
6194.17
6191.49
6188.81
6186.12
6183.44
6180.74
6178.04
6175.32
6172.59
6169.84
6167.07
6164.27
6161.46
6158.61
6155.74
6152.85
6149.92
6146.97
6143.98
6140.97
6137.94
6134.88
6131.79
6128.68
6125.54
6122.38
6119.2
6116
6112.77
6109.53
6106.26
6102.98
6099.68
6096.35
6093.01
6089.64
6086.25
6082.84
6079.4
6075.93
6072.43
6068.89
6065.32
6061.71
6058.05
6054.33
6050.56
6046.73
6042.82
6038.84
6034.77
6030.61
6026.33
6021.93
6017.4
6012.71
6007.85
6002.79
5997.52
5991.99
5986.19
5980.07
5973.59
5966.71
5959.4
5951.61
5943.31
5934.5
5925.17
5915.35
5905.06
5894.28
5882.97
5871.04
5858.31
5844.54
5829.39
5812.58
5794.14
5774.93
5755.39
5735.73
5716.09
5696.61
5677.6
5659.5
5642.17
5625.43
5609.29
5593.99
5579.87
5567.22
5556.24
5547
5539.49
5533.61
5529.29
5526.45
5525.05
6325.26
6323.38
6320.47
6317.19
6313.9
6310.73
6307.71
6304.85
6302.12
6299.51
6296.99
6294.55
6292.17
6289.85
6287.56
6285.3
6283.06
6280.82
6278.59
6276.35
6274.1
6271.83
6269.54
6267.22
6264.88
6262.5
6260.1
6257.67
6255.21
6252.72
6250.19
6247.65
6245.07
6242.47
6239.85
6237.21
6234.55
6231.87
6229.19
6226.49
6223.78
6221.06
6218.35
6215.63
6212.92
6210.2
6207.5
6204.8
6202.1
6199.41
6196.73
6194.05
6191.38
6188.7
6186.03
6183.35
6180.66
6177.97
6175.26
6172.54
6169.79
6167.03
6164.24
6161.43
6158.59
6155.72
6152.83
6149.9
6146.95
6143.97
6140.96
6137.92
6134.85
6131.76
6128.65
6125.51
6122.35
6119.17
6115.96
6112.74
6109.49
6106.23
6102.94
6099.64
6096.32
6092.98
6089.62
6086.23
6082.82
6079.39
6075.93
6072.44
6068.92
6065.36
6061.76
6058.11
6054.41
6050.66
6046.85
6042.97
6039.02
6034.98
6030.85
6026.61
6022.26
6017.78
6013.15
6008.35
6003.37
5998.18
5992.75
5987.05
5981.04
5974.68
5967.91
5960.7
5952.98
5944.73
5935.92
5926.59
5916.77
5906.54
5895.93
5884.91
5873.42
5861.25
5848.09
5833.37
5816.28
5796.32
5776.07
5755.82
5735.62
5715.4
5695.2
5675.33
5657.26
5640.03
5623.11
5606.44
5590.34
5575.57
5562.41
5551.19
5541.94
5534.54
5528.83
5524.68
5521.96
5520.62
6319.29
6318.15
6316.19
6313.79
6311.2
6308.56
6305.94
6303.38
6300.88
6298.45
6296.09
6293.77
6291.5
6289.27
6287.06
6284.86
6282.68
6280.49
6278.3
6276.1
6273.88
6271.64
6269.37
6267.08
6264.75
6262.39
6260
6257.57
6255.11
6252.62
6250.1
6247.55
6244.98
6242.37
6239.75
6237.1
6234.43
6231.75
6229.06
6226.35
6223.63
6220.91
6218.19
6215.47
6212.75
6210.03
6207.32
6204.62
6201.93
6199.24
6196.57
6193.89
6191.23
6188.56
6185.9
6183.23
6180.56
6177.87
6175.18
6172.47
6169.73
6166.98
6164.2
6161.4
6158.56
6155.7
6152.8
6149.88
6146.93
6143.94
6140.93
6137.89
6134.82
6131.73
6128.61
6125.47
6122.31
6119.13
6115.92
6112.69
6109.45
6106.18
6102.9
6099.6
6096.28
6092.94
6089.58
6086.21
6082.81
6079.38
6075.93
6072.46
6068.95
6065.4
6061.82
6058.19
6054.52
6050.79
6047.01
6043.16
6039.24
6035.25
6031.16
6026.98
6022.68
6018.27
6013.72
6009.01
6004.13
5999.06
5993.75
5988.19
5982.33
5976.13
5969.53
5962.46
5954.86
5946.66
5937.84
5928.43
5918.57
5908.38
5897.94
5887.29
5876.41
5865.13
5853.13
5839.59
5822.69
5798.74
5777.15
5756.16
5735.46
5714.65
5693.41
5671.19
5654.1
5637.51
5620.5
5602.96
5585.31
5569.59
5555.61
5544.11
5534.97
5527.86
5522.47
5518.58
5516.05
5514.81
6314.45
6313.68
6312.3
6310.49
6308.43
6306.23
6303.97
6301.71
6299.45
6297.22
6295.02
6292.85
6290.7
6288.57
6286.45
6284.34
6282.22
6280.1
6277.96
6275.81
6273.63
6271.42
6269.18
6266.91
6264.6
6262.26
6259.87
6257.46
6255
6252.51
6249.99
6247.44
6244.86
6242.25
6239.62
6236.97
6234.29
6231.6
6228.89
6226.18
6223.45
6220.72
6217.99
6215.26
6212.53
6209.81
6207.1
6204.4
6201.71
6199.03
6196.36
6193.69
6191.04
6188.39
6185.74
6183.08
6180.43
6177.76
6175.08
6172.38
6169.66
6166.92
6164.15
6161.35
6158.53
6155.67
6152.78
6149.85
6146.9
6143.91
6140.9
6137.86
6134.79
6131.69
6128.57
6125.43
6122.26
6119.07
6115.86
6112.63
6109.39
6106.12
6102.84
6099.54
6096.22
6092.89
6089.54
6086.17
6082.78
6079.37
6075.93
6072.47
6068.98
6065.45
6061.89
6058.29
6054.65
6050.95
6047.2
6043.39
6039.52
6035.57
6031.54
6027.42
6023.2
6018.87
6014.41
6009.81
6005.06
6000.12
5994.98
5989.6
5983.94
5977.95
5971.57
5964.72
5957.29
5949.17
5940.3
5930.69
5920.65
5910.4
5900.11
5889.86
5879.71
5869.66
5859.59
5849.03
5836.02
5822.23
5784.75
5756.27
5734.28
5710.7
5684.11
5661.83
5650.39
5635.36
5618.33
5599.54
5578.27
5561.8
5546.25
5534.59
5525.93
5519.41
5514.55
5511.07
5508.82
5507.71
6310.31
6309.76
6308.73
6307.33
6305.66
6303.83
6301.89
6299.89
6297.87
6295.85
6293.82
6291.8
6289.78
6287.77
6285.75
6283.73
6281.7
6279.64
6277.57
6275.47
6273.34
6271.17
6268.97
6266.72
6264.43
6262.1
6259.73
6257.32
6254.87
6252.38
6249.86
6247.31
6244.72
6242.11
6239.47
6236.81
6234.12
6231.42
6228.7
6225.97
6223.23
6220.49
6217.75
6215.01
6212.27
6209.55
6206.83
6204.13
6201.44
6198.76
6196.1
6193.45
6190.81
6188.17
6185.54
6182.91
6180.27
6177.62
6174.96
6172.28
6169.58
6166.85
6164.1
6161.31
6158.49
6155.64
6152.75
6149.82
6146.87
6143.88
6140.86
6137.82
6134.74
6131.64
6128.52
6125.37
6122.2
6119.01
6115.79
6112.56
6109.31
6106.04
6102.76
6099.46
6096.15
6092.82
6089.48
6086.12
6082.74
6079.35
6075.93
6072.48
6069.01
6065.51
6061.98
6058.41
6054.79
6051.13
6047.42
6043.66
6039.83
6035.94
6031.98
6027.93
6023.79
6019.56
6015.21
6010.74
6006.13
6001.36
5996.41
5991.25
5985.84
5980.13
5974.05
5967.51
5960.36
5952.4
5943.41
5933.34
5922.87
5912.4
5902.16
5892.27
5882.86
5874.13
5866.45
5860.75
5851.76
5852.99
5808.95
5760.49
5722.86
5696.94
5677.45
5660.34
5648.33
5632.79
5613.13
5588.52
5566.33
5553.02
5532.92
5522.01
5514.66
5509.25
5505.21
5502.29
5500.39
5499.46
6306.62
6306.2
6305.4
6304.29
6302.93
6301.39
6299.73
6297.99
6296.19
6294.36
6292.52
6290.65
6288.78
6286.89
6284.98
6283.06
6281.11
6279.14
6277.14
6275.1
6273.02
6270.9
6268.73
6266.52
6264.25
6261.94
6259.58
6257.18
6254.73
6252.24
6249.72
6247.16
6244.57
6241.95
6239.3
6236.62
6233.93
6231.21
6228.48
6225.73
6222.97
6220.22
6217.46
6214.71
6211.96
6209.23
6206.51
6203.81
6201.12
6198.45
6195.8
6193.16
6190.53
6187.92
6185.31
6182.7
6180.08
6177.46
6174.82
6172.17
6169.49
6166.78
6164.04
6161.26
6158.45
6155.6
6152.72
6149.8
6146.84
6143.85
6140.82
6137.77
6134.69
6131.59
6128.46
6125.3
6122.13
6118.93
6115.71
6112.48
6109.22
6105.95
6102.67
6099.37
6096.06
6092.74
6089.41
6086.06
6082.7
6079.32
6075.92
6072.49
6069.05
6065.57
6062.07
6058.53
6054.95
6051.33
6047.67
6043.95
6040.19
6036.36
6032.46
6028.5
6024.46
6020.33
6016.1
6011.77
6007.33
6002.75
5998.02
5993.11
5988
5982.64
5976.96
5970.87
5964.18
5956.58
5947.51
5936.3
5925
5914.12
5903.8
5894.13
5885.26
5877.47
5871.28
5867.54
5862.86
5857.88
5817.97
5757.98
5712.69
5682.04
5658.1
5639.09
5624.26
5608.76
5597.91
5577.93
5556.84
5529.49
5510.33
5505.79
5501.39
5497.67
5494.68
5492.45
5490.97
5490.23
6303.23
6302.9
6302.26
6301.36
6300.24
6298.95
6297.53
6296.02
6294.43
6292.8
6291.13
6289.43
6287.7
6285.94
6284.15
6282.34
6280.49
6278.6
6276.67
6274.7
6272.68
6270.61
6268.49
6266.3
6264.07
6261.77
6259.43
6257.03
6254.58
6252.09
6249.56
6247
6244.4
6241.77
6239.11
6236.42
6233.71
6230.97
6228.22
6225.45
6222.68
6219.9
6217.13
6214.36
6211.6
6208.86
6206.13
6203.43
6200.74
6198.08
6195.44
6192.82
6190.21
6187.62
6185.04
6182.46
6179.87
6177.28
6174.67
6172.04
6169.39
6166.7
6163.98
6161.22
6158.42
6155.58
6152.69
6149.77
6146.81
6143.81
6140.78
6137.72
6134.63
6131.52
6128.39
6125.23
6122.04
6118.84
6115.62
6112.37
6109.12
6105.84
6102.56
6099.26
6095.96
6092.64
6089.32
6085.98
6082.63
6079.27
6075.89
6072.5
6069.08
6065.63
6062.16
6058.66
6055.12
6051.55
6047.93
6044.27
6040.57
6036.81
6032.99
6029.11
6025.17
6021.16
6017.07
6012.89
6008.62
6004.25
5999.76
5995.15
5990.38
5985.43
5980.25
5974.77
5968.84
5962.13
5953.56
5939.25
5926.66
5915.23
5904.75
5895.14
5886.52
5879.17
5873.59
5870.93
5868.04
5860.77
5809.51
5740.77
5687.88
5647.33
5616.34
5593.95
5578.62
5567.63
5562.77
5543.76
5512.61
5489.71
5490.55
5489.37
5487.41
5485.28
5483.36
5481.81
5480.75
5480.21
6300.03
6299.77
6299.26
6298.52
6297.6
6296.52
6295.31
6294
6292.62
6291.18
6289.68
6288.14
6286.56
6284.94
6283.28
6281.58
6279.83
6278.04
6276.19
6274.29
6272.34
6270.32
6268.24
6266.09
6263.88
6261.61
6259.27
6256.87
6254.42
6251.93
6249.39
6246.82
6244.21
6241.57
6238.9
6236.2
6233.47
6230.71
6227.94
6225.15
6222.35
6219.55
6216.75
6213.96
6211.19
6208.43
6205.7
6202.99
6200.31
6197.65
6195.03
6192.43
6189.84
6187.28
6184.73
6182.18
6179.63
6177.07
6174.5
6171.91
6169.28
6166.62
6163.93
6161.18
6158.39
6155.56
6152.67
6149.75
6146.78
6143.77
6140.73
6137.66
6134.57
6131.45
6128.31
6125.14
6121.95
6118.74
6115.51
6112.26
6108.99
6105.72
6102.43
6099.13
6095.83
6092.52
6089.21
6085.89
6082.56
6079.21
6075.86
6072.49
6069.1
6065.69
6062.25
6058.79
6055.3
6051.77
6048.21
6044.61
6040.97
6037.28
6033.55
6029.76
6025.93
6022.03
6018.08
6014.07
6009.99
6005.84
6001.61
5997.3
5992.9
5988.4
5983.79
5979.06
5974.21
5969.36
5965.05
5951.91
5932.68
5917.3
5905.04
5895.05
5885.95
5877.93
5872.94
5871.83
5869.99
5840.72
5773.12
5707.72
5650.71
5603.08
5565.99
5541.77
5528.72
5520.42
5511.44
5491.68
5467.37
5464.96
5471.95
5473.71
5473.53
5472.65
5471.6
5470.66
5469.97
5469.61
6296.97
6296.76
6296.35
6295.75
6294.99
6294.09
6293.08
6291.97
6290.77
6289.51
6288.19
6286.81
6285.38
6283.9
6282.37
6280.79
6279.15
6277.46
6275.7
6273.88
6272
6270.04
6268.01
6265.9
6263.71
6261.45
6259.12
6256.72
6254.27
6251.76
6249.22
6246.63
6244.02
6241.36
6238.68
6235.96
6233.21
6230.43
6227.63
6224.81
6221.98
6219.15
6216.32
6213.51
6210.72
6207.94
6205.2
6202.49
6199.81
6197.16
6194.55
6191.97
6189.42
6186.89
6184.38
6181.87
6179.37
6176.85
6174.32
6171.77
6169.18
6166.55
6163.88
6161.16
6158.38
6155.55
6152.67
6149.73
6146.75
6143.73
6140.68
6137.6
6134.5
6131.37
6128.22
6125.04
6121.85
6118.63
6115.38
6112.13
6108.85
6105.57
6102.27
6098.98
6095.68
6092.37
6089.07
6085.77
6082.46
6079.14
6075.81
6072.47
6069.11
6065.74
6062.34
6058.92
6055.47
6052
6048.49
6044.95
6041.38
6037.77
6034.12
6030.43
6026.71
6022.94
6019.13
6015.28
6011.39
6007.46
6003.5
5999.51
5995.48
5991.44
5987.4
5983.38
5979.48
5975.91
5973.24
5967.74
5948.68
5926.6
5906.84
5891.55
5881.86
5876.47
5872.81
5870.99
5868.7
5812.75
5734.53
5666.29
5604.16
5548.29
5502.76
5478.42
5474.07
5473.9
5470.9
5459.98
5452.57
5456.15
5458.54
5459.92
5460.32
5460.13
5459.69
5459.2
5458.81
5458.6
6294
6293.83
6293.51
6293.03
6292.42
6291.68
6290.84
6289.91
6288.9
6287.82
6286.67
6285.45
6284.18
6282.84
6281.45
6279.99
6278.46
6276.87
6275.21
6273.48
6271.67
6269.77
6267.79
6265.72
6263.57
6261.32
6258.99
6256.58
6254.11
6251.59
6249.03
6246.43
6243.81
6241.15
6238.45
6235.71
6232.94
6230.13
6227.29
6224.43
6221.57
6218.7
6215.84
6213
6210.18
6207.39
6204.63
6201.91
6199.23
6196.6
6194.01
6191.46
6188.94
6186.45
6183.99
6181.53
6179.07
6176.61
6174.13
6171.62
6169.08
6166.49
6163.85
6161.16
6158.39
6155.57
6152.68
6149.73
6146.73
6143.69
6140.62
6137.53
6134.42
6131.28
6128.12
6124.94
6121.73
6118.5
6115.25
6111.97
6108.69
6105.39
6102.09
6098.79
6095.49
6092.2
6088.91
6085.62
6082.33
6079.04
6075.74
6072.43
6069.11
6065.78
6062.42
6059.04
6055.65
6052.23
6048.78
6045.3
6041.8
6038.27
6034.7
6031.11
6027.49
6023.85
6020.18
6016.5
6012.8
6009.09
6005.39
6001.7
5998.05
5994.44
5990.92
5987.51
5984.3
5981.39
5979.11
5976.87
5955.49
5926.57
5905.95
5887.37
5873.74
5862.56
5851.92
5839.07
5815.73
5753.22
5685.97
5618.73
5551.34
5483.18
5418.34
5395.08
5415.23
5430.21
5438.28
5437.88
5440.31
5444.95
5446.07
5447.08
5447.65
5447.83
5447.77
5447.6
5447.43
5447.33
6291.08
6290.96
6290.7
6290.33
6289.85
6289.28
6288.61
6287.85
6287.02
6286.11
6285.13
6284.08
6282.96
6281.77
6280.51
6279.18
6277.78
6276.3
6274.74
6273.1
6271.37
6269.54
6267.62
6265.59
6263.46
6261.22
6258.88
6256.46
6253.96
6251.41
6248.83
6246.22
6243.59
6240.92
6238.21
6235.46
6232.66
6229.82
6226.93
6224.03
6221.11
6218.2
6215.31
6212.43
6209.58
6206.76
6203.99
6201.26
6198.58
6195.95
6193.39
6190.87
6188.39
6185.96
6183.55
6181.15
6178.75
6176.35
6173.93
6171.48
6168.99
6166.45
6163.85
6161.18
6158.44
6155.61
6152.71
6149.74
6146.71
6143.65
6140.56
6137.45
6134.32
6131.18
6128.02
6124.83
6121.61
6118.37
6115.1
6111.81
6108.5
6105.19
6101.88
6098.57
6095.27
6091.99
6088.71
6085.44
6082.18
6078.92
6075.65
6072.38
6069.1
6065.8
6062.49
6059.16
6055.81
6052.45
6049.06
6045.65
6042.22
6038.76
6035.28
6031.79
6028.28
6024.75
6021.22
6017.69
6014.18
6010.68
6007.23
6003.83
6000.51
5997.31
5994.25
5991.37
5988.69
5986.1
5982.81
5981.94
5963.97
5930.88
5903.01
5878.26
5856.2
5835.22
5813.16
5786.86
5750.96
5698.41
5637.4
5571.33
5499.3
5414.74
5344.62
5330.53
5361.55
5393.44
5414.26
5423.56
5428.6
5432.76
5433.68
5434.62
5435.32
5435.73
5435.91
5435.96
5435.94
5435.92
6288.19
6288.1
6287.91
6287.65
6287.3
6286.87
6286.36
6285.78
6285.12
6284.39
6283.58
6282.7
6281.74
6280.7
6279.59
6278.39
6277.11
6275.75
6274.3
6272.75
6271.11
6269.36
6267.49
6265.51
6263.4
6261.17
6258.82
6256.36
6253.81
6251.23
6248.62
6245.99
6243.36
6240.69
6237.98
6235.22
6232.39
6229.5
6226.56
6223.59
6220.62
6217.65
6214.71
6211.79
6208.91
6206.06
6203.26
6200.51
6197.83
6195.22
6192.68
6190.2
6187.78
6185.4
6183.05
6180.73
6178.41
6176.08
6173.73
6171.35
6168.92
6166.44
6163.88
6161.25
6158.52
6155.7
6152.78
6149.77
6146.7
6143.6
6140.48
6137.35
6134.21
6131.07
6127.9
6124.71
6121.48
6118.22
6114.94
6111.62
6108.29
6104.95
6101.62
6098.3
6095.01
6091.73
6088.47
6085.23
6082
6078.77
6075.54
6072.31
6069.06
6065.81
6062.54
6059.26
6055.97
6052.66
6049.33
6045.99
6042.62
6039.24
6035.85
6032.45
6029.04
6025.63
6022.23
6018.84
6015.5
6012.2
6008.97
6005.84
6002.83
5999.97
5997.32
5994.92
5992.87
5991.35
5987.95
5986.02
5966.41
5929.99
5896.93
5866.45
5837.6
5808.96
5778.66
5744.26
5702.82
5652.06
5593.91
5529.86
5459.81
5381.6
5332.02
5325.68
5336.87
5367.74
5396
5410.8
5413.72
5419.89
5421.2
5422.37
5423.23
5423.8
5424.14
5424.33
5424.41
5424.45
6285.28
6285.23
6285.12
6284.95
6284.73
6284.45
6284.1
6283.7
6283.22
6282.67
6282.04
6281.33
6280.53
6279.65
6278.68
6277.62
6276.47
6275.23
6273.89
6272.45
6270.9
6269.23
6267.44
6265.51
6263.43
6261.2
6258.81
6256.29
6253.67
6251.02
6248.37
6245.74
6243.11
6240.46
6237.77
6234.99
6232.13
6229.18
6226.17
6223.13
6220.07
6217.04
6214.04
6211.08
6208.16
6205.27
6202.44
6199.67
6196.98
6194.37
6191.86
6189.44
6187.08
6184.78
6182.51
6180.27
6178.03
6175.79
6173.52
6171.22
6168.87
6166.46
6163.96
6161.38
6158.68
6155.85
6152.9
6149.84
6146.7
6143.53
6140.37
6137.22
6134.09
6130.95
6127.79
6124.59
6121.36
6118.08
6114.77
6111.42
6108.06
6104.68
6101.32
6097.99
6094.69
6091.42
6088.19
6084.98
6081.78
6078.59
6075.4
6072.21
6069.01
6065.8
6062.58
6059.35
6056.11
6052.86
6049.59
6046.31
6043.01
6039.71
6036.4
6033.08
6029.77
6026.46
6023.18
6019.93
6016.73
6013.61
6010.58
6007.68
6004.93
6002.37
6000.05
5998.03
5996.39
5995.34
5993.23
5989.71
5966.59
5925.75
5888.28
5853
5818.79
5784.36
5748.24
5708.69
5664.02
5613.1
5556.31
5494.41
5428.45
5361.16
5324.25
5320.61
5319.18
5344.64
5380.74
5399.53
5400.44
5406.21
5408.83
5410.37
5411.38
5412.05
5412.49
5412.75
5412.89
5412.96
6282.34
6282.32
6282.28
6282.22
6282.13
6282
6281.83
6281.61
6281.32
6280.95
6280.51
6279.97
6279.34
6278.62
6277.8
6276.88
6275.87
6274.75
6273.53
6272.2
6270.76
6269.18
6267.47
6265.6
6263.56
6261.33
6258.9
6256.27
6253.52
6250.75
6248.06
6245.43
6242.84
6240.24
6237.58
6234.82
6231.91
6228.89
6225.79
6222.63
6219.47
6216.36
6213.31
6210.3
6207.33
6204.4
6201.51
6198.7
6195.99
6193.4
6190.93
6188.57
6186.29
6184.08
6181.91
6179.77
6177.63
6175.48
6173.31
6171.11
6168.85
6166.52
6164.11
6161.58
6158.92
6156.1
6153.1
6149.94
6146.69
6143.43
6140.21
6137.05
6133.93
6130.81
6127.68
6124.49
6121.24
6117.94
6114.59
6111.21
6107.79
6104.37
6100.97
6097.61
6094.3
6091.05
6087.85
6084.68
6081.53
6078.38
6075.24
6072.09
6068.93
6065.77
6062.6
6059.42
6056.23
6053.03
6049.83
6046.61
6043.39
6040.15
6036.92
6033.68
6030.45
6027.24
6024.06
6020.93
6017.86
6014.89
6012.03
6009.32
6006.79
6004.47
6002.4
6000.63
5999.26
5998.44
5997.13
5991.88
5962.45
5918.12
5877.44
5838.49
5800.18
5761.47
5721.23
5678.26
5631.44
5580.02
5523.82
5463.02
5398.43
5338.88
5315.68
5315.45
5314.6
5333.54
5368.94
5388.51
5393.43
5395.62
5397.48
5398.85
5399.83
5400.5
5400.96
5401.24
5401.41
5401.48
6279.33
6279.35
6279.38
6279.43
6279.48
6279.52
6279.53
6279.51
6279.42
6279.25
6278.99
6278.64
6278.18
6277.62
6276.96
6276.18
6275.31
6274.32
6273.23
6272.02
6270.69
6269.22
6267.61
6265.82
6263.84
6261.62
6259.15
6256.31
6253.35
6250.37
6247.64
6245.04
6242.53
6240.04
6237.47
6234.73
6231.77
6228.65
6225.41
6222.09
6218.77
6215.57
6212.48
6209.45
6206.43
6203.44
6200.47
6197.6
6194.86
6192.28
6189.86
6187.58
6185.4
6183.3
6181.25
6179.22
6177.2
6175.17
6173.11
6171.01
6168.86
6166.64
6164.33
6161.89
6159.3
6156.49
6153.42
6150.1
6146.67
6143.25
6139.97
6136.81
6133.73
6130.67
6127.58
6124.4
6121.15
6117.82
6114.43
6110.99
6107.51
6104.01
6100.54
6097.14
6093.83
6090.6
6087.44
6084.33
6081.23
6078.14
6075.04
6071.94
6068.83
6065.71
6062.59
6059.46
6056.33
6053.19
6050.04
6046.89
6043.73
6040.57
6037.4
6034.24
6031.09
6027.96
6024.86
6021.82
6018.86
6016.01
6013.29
6010.74
6008.38
6006.23
6004.35
6002.76
6001.54
6000.83
6000.06
5985.41
5948.54
5906.84
5864.88
5823.35
5781.97
5740.11
5696.96
5651.69
5603.48
5551.71
5495.93
5435.43
5368.19
5319.68
5311.48
5311.08
5311.61
5324.36
5356.95
5378.58
5384.2
5385.31
5386.58
5387.68
5388.53
5389.13
5389.55
5389.81
5389.96
5390.03
6276.22
6276.27
6276.39
6276.55
6276.76
6276.98
6277.21
6277.4
6277.53
6277.57
6277.52
6277.35
6277.07
6276.67
6276.16
6275.54
6274.8
6273.96
6273
6271.92
6270.71
6269.37
6267.87
6266.18
6264.29
6262.12
6259.73
6256.43
6253.14
6249.7
6247.06
6244.52
6242.17
6239.88
6237.49
6234.84
6231.75
6228.48
6225.07
6221.52
6217.92
6214.64
6211.56
6208.53
6205.49
6202.4
6199.31
6196.32
6193.52
6190.96
6188.62
6186.44
6184.4
6182.43
6180.52
6178.64
6176.75
6174.85
6172.91
6170.94
6168.91
6166.81
6164.63
6162.33
6159.85
6157.1
6153.96
6150.33
6146.6
6142.91
6139.58
6136.44
6133.46
6130.54
6127.54
6124.37
6121.09
6117.72
6114.28
6110.77
6107.2
6103.59
6100
6096.55
6093.24
6090.06
6086.96
6083.92
6080.89
6077.86
6074.82
6071.77
6068.7
6065.63
6062.55
6059.48
6056.4
6053.32
6050.24
6047.14
6044.05
6040.95
6037.85
6034.76
6031.67
6028.61
6025.58
6022.61
6019.72
6016.96
6014.34
6011.91
6009.67
6007.66
6005.91
6004.43
6003.3
6002.57
6001.92
5981.44
5939.45
5895.84
5851.88
5808.05
5764.24
5720.03
5674.83
5628.04
5579.06
5527.43
5472.76
5414.57
5351.82
5313.57
5308.87
5308.41
5309.43
5322.03
5350.17
5368.33
5373.9
5374.79
5375.81
5376.72
5377.41
5377.91
5378.24
5378.44
5378.56
5378.61
6272.96
6273.06
6273.26
6273.56
6273.94
6274.38
6274.84
6275.28
6275.65
6275.93
6276.09
6276.11
6276.01
6275.78
6275.43
6274.95
6274.36
6273.65
6272.83
6271.89
6270.83
6269.63
6268.26
6266.68
6264.98
6262.79
6261.16
6257.47
6252.08
6248.2
6246.31
6243.78
6241.71
6239.77
6237.74
6235.33
6231.89
6228.41
6224.82
6220.95
6216.71
6213.46
6210.53
6207.6
6204.53
6201.33
6198.03
6194.79
6191.91
6189.4
6187.17
6185.15
6183.27
6181.48
6179.74
6178.02
6176.29
6174.53
6172.73
6170.88
6168.99
6167.04
6165.03
6162.92
6160.64
6158.07
6154.96
6150.64
6146.45
6142.18
6138.95
6135.9
6133.12
6130.44
6127.62
6124.43
6121.08
6117.66
6114.17
6110.59
6106.9
6103.11
6099.28
6095.79
6092.49
6089.38
6086.4
6083.46
6080.53
6077.57
6074.58
6071.57
6068.54
6065.51
6062.48
6059.46
6056.44
6053.42
6050.4
6047.37
6044.33
6041.3
6038.26
6035.23
6032.2
6029.18
6026.19
6023.26
6020.42
6017.71
6015.17
6012.81
6010.67
6008.75
6007.09
6005.73
6004.67
6003.64
6003.01
5979.01
5931.99
5885.18
5838.75
5792.74
5746.92
5700.92
5654.3
5606.57
5557.3
5506.19
5453.1
5398.28
5342.36
5311.22
5307.89
5308.02
5308.94
5312.48
5336.03
5356.34
5362.93
5364.09
5365.12
5365.91
5366.45
5366.8
5367.01
5367.11
5367.17
5367.19
6269.53
6269.68
6269.97
6270.41
6270.99
6271.68
6272.42
6273.16
6273.81
6274.34
6274.72
6274.95
6275.03
6274.96
6274.76
6274.43
6273.98
6273.41
6272.73
6271.94
6271.03
6270.01
6268.81
6267.25
6266.12
6264.67
6262.01
6256.6
6251.17
6247.56
6244.77
6242.52
6241.1
6239.71
6238.33
6236.8
6234.23
6229.8
6223.79
6218.44
6214.45
6211.93
6209.47
6206.74
6203.69
6200.31
6196.64
6192.88
6189.9
6187.5
6185.47
6183.68
6182.02
6180.45
6178.91
6177.38
6175.82
6174.21
6172.55
6170.84
6169.09
6167.3
6165.49
6163.63
6161.69
6159.55
6157.14
6152.27
6145.4
6140.37
6138.1
6135.05
6132.65
6130.44
6128.05
6124.6
6121.12
6117.64
6114.11
6110.47
6106.68
6102.63
6098.2
6094.79
6091.51
6088.56
6085.75
6082.96
6080.14
6077.27
6074.34
6071.36
6068.35
6065.34
6062.36
6059.39
6056.44
6053.49
6050.52
6047.56
6044.58
6041.61
6038.63
6035.65
6032.67
6029.69
6026.71
6023.78
6020.94
6018.25
6015.74
6013.44
6011.35
6009.49
6007.93
6006.74
6006
6004.82
6003.5
5976.17
5924.33
5874.13
5825.22
5777.22
5729.77
5682.45
5634.87
5586.64
5537.4
5486.91
5435.2
5383.07
5334.08
5310.06
5307.64
5307.69
5308.28
5310.6
5330.27
5346.37
5351.31
5353.46
5354.62
5355.29
5355.64
5355.8
5355.83
5355.8
5355.76
5355.73
6265.88
6266.07
6266.45
6267.05
6267.85
6268.85
6269.96
6271.05
6272.03
6272.84
6273.46
6273.89
6274.14
6274.23
6274.17
6273.98
6273.66
6273.24
6272.7
6272.06
6271.31
6270.52
6269.66
6268.59
6266.89
6262.23
6257.21
6252.01
6248.19
6245.29
6243.39
6241.63
6240.4
6239.6
6239.02
6238.18
6234.29
6228.11
6221.74
6216.32
6212.62
6210.3
6208.65
6206.18
6203.13
6199.53
6195.3
6190.14
6187.27
6185.2
6183.51
6182.02
6180.66
6179.35
6178.05
6176.73
6175.36
6173.91
6172.39
6170.81
6169.19
6167.56
6165.95
6164.41
6162.91
6161.25
6159.59
6152.71
6144
6139.04
6136.24
6133.53
6131.94
6130.59
6129.49
6127.4
6122.05
6117.14
6114.61
6110.46
6105
6099.97
6096.05
6093.64
6090.15
6087.55
6085.04
6082.46
6079.77
6076.98
6074.09
6071.13
6068.12
6065.11
6062.17
6059.28
6056.4
6053.52
6050.62
6047.71
6044.79
6041.87
6038.95
6036.04
6033.11
6030.15
6027.14
6024.16
6021.27
6018.54
6016.04
6013.77
6011.7
6009.89
6008.41
6007.32
6006.69
6005.8
6003.51
5971.59
5915.01
5861.79
5810.77
5761.17
5712.47
5664.24
5616.11
5567.71
5518.73
5468.85
5417.7
5364.72
5322.14
5308.08
5307.31
5307.35
5307.38
5309.03
5326.56
5340.63
5342.43
5343.78
5344.57
5344.93
5344.99
5344.87
5344.66
5344.45
5344.29
5344.2
6261.97
6262.19
6262.66
6263.4
6264.47
6265.84
6267.44
6269
6270.37
6271.48
6272.33
6272.95
6273.36
6273.59
6273.66
6273.6
6273.42
6273.13
6272.74
6272.24
6271.56
6271.05
6270.27
6265.52
6260.14
6253.74
6248.93
6245.05
6242.32
6240.71
6240.38
6240.8
6239.84
6239.24
6239.12
6238.41
6233.31
6225.19
6218.17
6212.51
6208.73
6207.41
6207.39
6205.68
6202.05
6196.42
6189.99
6185.08
6183.79
6182.49
6181.31
6180.22
6179.2
6178.2
6177.18
6176.1
6174.94
6173.66
6172.26
6170.78
6169.26
6167.75
6166.33
6165.1
6164.24
6163.31
6158.49
6148.38
6139.78
6134.29
6131.62
6130.53
6130.97
6130.47
6129.89
6127.65
6120.81
6113.38
6109.37
6106.16
6101.91
6098.14
6094.18
6090.83
6087.87
6086.4
6084.37
6082.03
6079.47
6076.74
6073.89
6070.92
6067.86
6064.77
6061.9
6059.11
6056.33
6053.52
6050.68
6047.82
6044.95
6042.09
6039.23
6036.38
6033.53
6030.6
6027.47
6024.38
6021.38
6018.52
6016.03
6013.81
6011.78
6009.99
6008.52
6007.44
6006.83
6006.01
6002.57
5962.64
5902.33
5847.26
5794.89
5744.23
5694.71
5645.94
5597.59
5549.37
5500.98
5452.06
5402.05
5349.77
5314.48
5307.27
5306.92
5307.03
5307.17
5308.11
5320.97
5333.15
5333.94
5334.62
5334.91
5334.81
5334.46
5333.97
5333.46
5333.01
5332.69
5332.52
6257.76
6258
6258.51
6259.38
6260.69
6262.55
6264.88
6267.09
6268.9
6270.31
6271.38
6272.17
6272.71
6273.06
6273.25
6273.3
6273.23
6273.07
6272.84
6272.53
6272.06
6270.49
6264.08
6255.27
6248.92
6243.66
6239.72
6236.94
6235.33
6234.84
6235.62
6237.89
6238.9
6238.92
6238.32
6237.27
6230.85
6221.17
6213.24
6206.31
6202.42
6204.05
6204.76
6201.54
6193.94
6186.23
6182.7
6180.84
6180.3
6179.63
6178.97
6178.32
6177.68
6177.03
6176.33
6175.53
6174.59
6173.49
6172.18
6170.76
6169.3
6167.84
6166.47
6165.39
6164.72
6164.21
6156.49
6143.13
6132.14
6124.18
6119.43
6119.09
6123.23
6127.91
6127.86
6122.21
6112.66
6104.81
6101.61
6099.71
6096.7
6094.2
6091.07
6088.44
6086.88
6085.76
6083.97
6081.77
6079.29
6076.59
6073.75
6070.75
6067.57
6064.16
6061.5
6058.9
6056.23
6053.49
6050.71
6047.89
6045.06
6042.24
6039.44
6036.67
6033.95
6031.17
6027.7
6024.45
6021.28
6018.07
6015.77
6013.67
6011.66
6009.76
6008.24
6007.08
6006.44
6005.67
5988.43
5939.31
5884.39
5830.04
5777.31
5726.13
5676.2
5627.22
5578.96
5531.19
5483.75
5436.37
5388.66
5339.84
5310.33
5306.19
5306.41
5306.67
5307.02
5308.7
5315.86
5324.83
5325.53
5325.81
5325.57
5324.92
5324.02
5323.05
5322.15
5321.4
5320.89
5320.63
6253.24
6253.46
6253.95
6254.83
6256.31
6258.72
6262.36
6265.52
6267.79
6269.44
6270.67
6271.57
6272.21
6272.65
6272.93
6273.07
6273.1
6273.05
6272.95
6272.26
6266.66
6259.88
6250.56
6242.58
6236.62
6232.27
6229.34
6227.67
6227.21
6227.72
6229.37
6232.83
6236.71
6235.16
6235.16
6234.98
6226.12
6215.42
6207.31
6200.84
6198.41
6201.26
6202.07
6194.8
6183.87
6176.75
6177.06
6176.96
6176.89
6176.75
6176.57
6176.37
6176.15
6175.88
6175.54
6175.06
6174.39
6173.5
6172.18
6170.75
6169.29
6167.8
6166.3
6165.25
6164.51
6163.68
6153.18
6135.53
6121.46
6110.85
6103.21
6100.32
6102.73
6105.15
6112.48
6110.83
6104.1
6100.12
6098.38
6096.28
6093.97
6092.52
6090.47
6088.44
6087.12
6085.34
6083.47
6081.43
6078.78
6076.01
6073.35
6070.25
6066.27
6062.76
6061
6058.69
6056.14
6053.47
6050.72
6047.92
6045.1
6042.31
6039.54
6036.84
6034.33
6032.32
6027.42
6024.49
6020.2
6016.74
6015.32
6013.47
6011.42
6009.17
6007.58
6006.21
6005.45
6004.3
5977.06
5921.76
5865.9
5811.2
5758.19
5706.78
5656.73
5607.8
5559.82
5512.71
5466.44
5421.03
5376.37
5331.98
5307.28
5305.1
5305.65
5306.22
5307.08
5308.66
5311.32
5316.08
5317.5
5317.46
5316.59
5315.21
5313.61
5312.02
5310.62
5309.52
5308.78
5308.41
6248.44
6248.59
6248.94
6249.61
6250.9
6253.6
6260.25
6264.78
6267.22
6268.93
6270.22
6271.19
6271.87
6272.37
6272.7
6272.89
6273.02
6273.03
6268.07
6262
6252.66
6244.35
6235.69
6227.88
6222.69
6219.48
6217.68
6217.19
6218.12
6219.47
6221.3
6223.8
6227.13
6225.68
6225.89
6224.68
6215.59
6207.06
6199.76
6193.67
6191.22
6192.9
6191.93
6185.37
6176.96
6172.04
6171.79
6173.12
6173.5
6173.86
6174.17
6174.42
6174.63
6174.78
6174.86
6174.77
6174.36
6173.9
6172.82
6170.77
6168.94
6167.16
6165.63
6164.77
6163.56
6160.92
6147.24
6124.39
6107.32
6094.57
6085
6081.26
6081.02
6076.91
6090.74
6104.59
6100.48
6098.53
6098.39
6096.13
6093.63
6091.85
6090.46
6089.22
6081.09
6074.21
6070.32
6067.24
6064.25
6061.41
6058.69
6055.82
6052.9
6051.28
6049.49