/*--------------------------------*- C++ -*----------------------------------*\
| =========                 |                                                 |
| \\      /  F ield         | OpenFOAM: The Open Source CFD Toolbox           |
|  \\    /   O peration     | Version:  2.1.0                                 |
|   \\  /    A nd           | Web:      www.OpenFOAM.org                      |
|    \\/     M anipulation  |                                                 |
\*---------------------------------------------------------------------------*/
FoamFile
{
    version     2.0;
    format      ascii;
    class       volScalarField;
    location    "40150";
    object      so;
}
// * * * * * * * * * * * * * * * * * * * * * * * * * * * * * * * * * * * * * //

dimensions      [0 0 0 0 0 0 0];

internalField   nonuniform List<scalar> 
15000
(
0.2
0.2
0.200003
0.200135
0.201321
0.205409
0.213179
0.223618
0.235296
0.247239
0.258945
0.27019
0.280889
0.29102
0.300592
0.309626
0.31815
0.326191
0.33378
0.340945
0.347715
0.354118
0.36018
0.365927
0.371383
0.376571
0.381513
0.386229
0.390739
0.395061
0.399212
0.403209
0.407066
0.410797
0.414413
0.417926
0.421343
0.424674
0.427925
0.431104
0.434218
0.437271
0.440269
0.443216
0.446117
0.448976
0.451794
0.454575
0.457321
0.460033
0.462712
0.465358
0.467971
0.470552
0.473098
0.475611
0.478088
0.480529
0.482932
0.485298
0.487625
0.489914
0.492163
0.494374
0.496547
0.498682
0.50078
0.502842
0.50487
0.506865
0.508827
0.510759
0.512662
0.514538
0.516387
0.518212
0.520014
0.521793
0.523551
0.52529
0.527009
0.528711
0.530395
0.532062
0.533713
0.535348
0.536967
0.53857
0.540158
0.54173
0.543286
0.544827
0.54635
0.547857
0.549345
0.550815
0.552265
0.553695
0.555103
0.556488
0.557849
0.559184
0.560493
0.561774
0.563026
0.564247
0.565436
0.566592
0.567714
0.568802
0.569856
0.570875
0.571861
0.572814
0.573735
0.574627
0.57549
0.576325
0.577134
0.577922
0.578695
0.579463
0.580244
0.581059
0.581935
0.5829
0.583967
0.585105
0.5862
0.587103
0.587785
0.588271
0.588609
0.588947
0.589289
0.58964
0.590003
0.590382
0.590778
0.591197
0.591645
0.592134
0.592678
0.593302
0.594036
0.594934
0.596081
0.597654
0.600107
0.605556
0.2
0.2
0.200018
0.200357
0.202304
0.207505
0.216092
0.226846
0.238502
0.250271
0.261756
0.272781
0.283278
0.293232
0.302651
0.311553
0.319962
0.327905
0.335409
0.3425
0.349205
0.355551
0.361562
0.367263
0.372679
0.377829
0.382737
0.387421
0.391902
0.396196
0.400321
0.404293
0.408128
0.411837
0.415433
0.418926
0.422323
0.425635
0.428867
0.432027
0.435122
0.438156
0.441136
0.444065
0.446949
0.44979
0.452593
0.455359
0.45809
0.460789
0.463455
0.46609
0.468693
0.471264
0.473802
0.476307
0.478778
0.481214
0.483613
0.485975
0.488299
0.490585
0.492833
0.495042
0.497214
0.499348
0.501445
0.503506
0.505533
0.507526
0.509487
0.511418
0.51332
0.515194
0.517042
0.518866
0.520666
0.522445
0.524202
0.52594
0.52766
0.529362
0.531046
0.532714
0.534366
0.536002
0.537624
0.539231
0.540822
0.542399
0.543961
0.545507
0.547039
0.548555
0.550054
0.551536
0.553
0.554445
0.555871
0.557277
0.558662
0.560024
0.561365
0.562682
0.563974
0.565243
0.566486
0.567706
0.568902
0.570075
0.571228
0.572364
0.573484
0.574592
0.575693
0.576788
0.577882
0.578975
0.58007
0.58117
0.582288
0.583454
0.584713
0.586137
0.587821
0.589874
0.592378
0.595267
0.598097
0.600161
0.601501
0.60228
0.602654
0.602875
0.602952
0.602914
0.602823
0.602704
0.602537
0.602292
0.601952
0.601535
0.601084
0.600658
0.600324
0.600155
0.600254
0.600796
0.602231
0.606669
0.200002
0.200017
0.200175
0.201192
0.204567
0.211228
0.220613
0.231521
0.242983
0.254428
0.26557
0.276275
0.28649
0.2962
0.305409
0.314132
0.322387
0.330198
0.337587
0.344578
0.351195
0.357461
0.363401
0.369038
0.374394
0.379489
0.384346
0.388983
0.393418
0.39767
0.401756
0.405692
0.409491
0.413167
0.416729
0.420189
0.423555
0.426835
0.430036
0.433165
0.43623
0.439234
0.442185
0.445087
0.447944
0.450759
0.453538
0.456281
0.458992
0.461672
0.464321
0.46694
0.46953
0.472089
0.474618
0.477115
0.479579
0.482009
0.484403
0.486761
0.489082
0.491365
0.493611
0.495818
0.497988
0.500119
0.502214
0.504273
0.506297
0.508288
0.510247
0.512175
0.514073
0.515945
0.51779
0.519611
0.521409
0.523185
0.52494
0.526676
0.528394
0.530095
0.531779
0.533446
0.535098
0.536736
0.538359
0.539968
0.541563
0.543144
0.544711
0.546264
0.547804
0.549329
0.55084
0.552336
0.553816
0.55528
0.556727
0.558158
0.559571
0.560966
0.562344
0.563705
0.565048
0.566374
0.567685
0.568984
0.570271
0.571553
0.572833
0.574117
0.575414
0.576732
0.578082
0.579477
0.580928
0.582444
0.584027
0.585666
0.587372
0.589194
0.591229
0.593628
0.596604
0.600422
0.605331
0.611334
0.617224
0.620604
0.622515
0.62351
0.6239
0.62384
0.623322
0.622406
0.621373
0.620307
0.61913
0.617717
0.616007
0.614059
0.611982
0.609913
0.607983
0.60631
0.605011
0.604264
0.604508
0.607843
0.200126
0.200339
0.201164
0.203653
0.20886
0.216809
0.226651
0.237446
0.248534
0.259532
0.270239
0.280552
0.290425
0.299842
0.3088
0.317308
0.32538
0.333031
0.340281
0.34715
0.353658
0.359827
0.365679
0.371235
0.376515
0.381541
0.386332
0.390906
0.395284
0.399481
0.403515
0.407401
0.411153
0.414783
0.418301
0.421717
0.425039
0.428275
0.431433
0.434521
0.437544
0.440509
0.44342
0.446284
0.449105
0.451887
0.454633
0.457347
0.46003
0.462685
0.465313
0.467913
0.470486
0.473031
0.475548
0.478035
0.480491
0.482914
0.485303
0.487657
0.489974
0.492255
0.494498
0.496703
0.498869
0.500998
0.50309
0.505145
0.507166
0.509152
0.511107
0.51303
0.514924
0.516791
0.518632
0.520448
0.522242
0.524014
0.525765
0.527498
0.529213
0.53091
0.532592
0.534258
0.535909
0.537547
0.539171
0.540782
0.54238
0.543965
0.545538
0.547098
0.548647
0.550183
0.551707
0.553218
0.554716
0.556201
0.557673
0.559132
0.560578
0.562011
0.563433
0.564844
0.566246
0.567641
0.569032
0.570423
0.571821
0.573233
0.574667
0.576138
0.577661
0.579257
0.580956
0.582797
0.584824
0.587074
0.589532
0.592101
0.594738
0.597512
0.600592
0.60424
0.608827
0.614836
0.622807
0.633193
0.643174
0.646482
0.648222
0.649136
0.64952
0.649154
0.647877
0.645613
0.643321
0.641197
0.638958
0.636247
0.632877
0.629002
0.624842
0.620658
0.616699
0.613157
0.61018
0.607946
0.606877
0.609058
0.201225
0.202172
0.204401
0.20872
0.21542
0.224062
0.233913
0.244341
0.25492
0.265391
0.275608
0.285487
0.294983
0.304076
0.312757
0.321026
0.328892
0.336364
0.343458
0.350188
0.356573
0.36263
0.36838
0.373841
0.379033
0.383975
0.388688
0.393188
0.397495
0.401625
0.405595
0.409421
0.413114
0.416686
0.420148
0.423508
0.426775
0.429957
0.433062
0.436096
0.439067
0.44198
0.444842
0.447658
0.450433
0.453172
0.455878
0.458555
0.461205
0.463829
0.46643
0.469006
0.471559
0.474088
0.476591
0.479067
0.481514
0.48393
0.486314
0.488663
0.490978
0.493256
0.495496
0.497698
0.499861
0.501986
0.504074
0.506125
0.50814
0.510121
0.51207
0.513987
0.515875
0.517735
0.51957
0.52138
0.523168
0.524934
0.52668
0.528407
0.530117
0.53181
0.533488
0.535151
0.536801
0.538438
0.540062
0.541674
0.543276
0.544865
0.546444
0.548012
0.54957
0.551118
0.552656
0.554184
0.555702
0.557211
0.55871
0.560201
0.561684
0.56316
0.564632
0.5661
0.567568
0.569041
0.570523
0.572022
0.573548
0.575112
0.576732
0.57843
0.580238
0.582203
0.584395
0.586915
0.589901
0.593466
0.597522
0.601582
0.605484
0.609357
0.613497
0.618306
0.624316
0.632226
0.642911
0.657916
0.670248
0.670812
0.672225
0.672881
0.673329
0.673051
0.671541
0.667722
0.664334
0.661771
0.659187
0.655765
0.65097
0.645195
0.638828
0.632265
0.625982
0.620326
0.615499
0.611675
0.609248
0.610284
0.205015
0.207057
0.210751
0.216382
0.223794
0.232515
0.242029
0.251925
0.26192
0.271829
0.281536
0.290964
0.30007
0.308825
0.317215
0.325233
0.332881
0.340163
0.347088
0.35367
0.35992
0.365855
0.371492
0.376848
0.381942
0.38679
0.391413
0.395827
0.400052
0.404105
0.408001
0.411754
0.415378
0.418882
0.422276
0.42557
0.428771
0.431887
0.434926
0.437896
0.440803
0.443654
0.446455
0.449213
0.451932
0.454618
0.457275
0.459907
0.462516
0.465104
0.467672
0.470221
0.472751
0.47526
0.477747
0.480211
0.482648
0.485058
0.487437
0.489783
0.492094
0.49437
0.496608
0.498807
0.500967
0.503089
0.505171
0.507217
0.509225
0.511199
0.51314
0.515049
0.51693
0.518782
0.520609
0.522411
0.524191
0.52595
0.527688
0.529409
0.531112
0.532799
0.534472
0.536131
0.537777
0.539412
0.541036
0.542649
0.544253
0.545847
0.547432
0.549008
0.550576
0.552136
0.55369
0.555236
0.556777
0.558311
0.559841
0.561366
0.56289
0.564413
0.565939
0.567471
0.569013
0.570572
0.572157
0.573777
0.575448
0.577188
0.579026
0.580999
0.583166
0.585619
0.588506
0.592067
0.596644
0.602541
0.609474
0.615576
0.620752
0.625448
0.630195
0.635549
0.64214
0.650753
0.662386
0.680122
0.686051
0.701532
0.720197
0.749208
0.76164
0.746212
0.71893
0.677208
0.674835
0.673908
0.672868
0.670711
0.666055
0.659614
0.652021
0.643428
0.634915
0.627191
0.62057
0.615223
0.611512
0.611489
0.212248
0.215132
0.219672
0.225811
0.233271
0.241673
0.250661
0.259955
0.269349
0.278697
0.287899
0.296884
0.305602
0.314021
0.322118
0.329883
0.337308
0.344396
0.351149
0.357576
0.363687
0.369495
0.375013
0.380256
0.385242
0.389988
0.394512
0.398831
0.402964
0.406929
0.41074
0.414412
0.417955
0.42138
0.424697
0.427913
0.431036
0.434076
0.437038
0.439931
0.442762
0.445538
0.448267
0.450954
0.453607
0.45623
0.458828
0.461406
0.463966
0.466511
0.469041
0.471558
0.47406
0.476548
0.479018
0.481468
0.483897
0.486299
0.488674
0.491018
0.493328
0.495602
0.497839
0.500036
0.502194
0.504311
0.506388
0.508426
0.510427
0.512393
0.514324
0.516224
0.518095
0.519938
0.521755
0.523548
0.525318
0.527067
0.528797
0.530508
0.532203
0.533882
0.535547
0.5372
0.538842
0.540473
0.542095
0.543709
0.545315
0.546913
0.548505
0.550088
0.551667
0.553241
0.554811
0.556377
0.557941
0.559504
0.561066
0.562629
0.564196
0.565771
0.567355
0.568956
0.570579
0.572233
0.573931
0.575686
0.57752
0.579462
0.581554
0.583858
0.586475
0.589568
0.593423
0.598523
0.605608
0.615423
0.627389
0.63543
0.641154
0.645832
0.650303
0.655203
0.661126
0.668727
0.678807
0.696399
0.735132
0.799791
0.799996
0.8
0.799638
0.787383
0.783207
0.772951
0.761397
0.752481
0.731887
0.707789
0.672465
0.667824
0.661735
0.652215
0.642148
0.632905
0.62491
0.61834
0.613558
0.612641
0.221997
0.225247
0.23001
0.2361
0.243243
0.251146
0.259548
0.268239
0.277055
0.285873
0.294598
0.303161
0.311508
0.319603
0.327418
0.334935
0.342144
0.34904
0.355623
0.361896
0.367868
0.373546
0.378942
0.38407
0.388944
0.393581
0.397998
0.402214
0.406246
0.410114
0.41383
0.417409
0.420862
0.424198
0.427427
0.430555
0.43359
0.43654
0.439413
0.442216
0.444958
0.447647
0.45029
0.452895
0.455468
0.458016
0.460545
0.463059
0.465561
0.468055
0.470541
0.47302
0.475491
0.477954
0.480405
0.482842
0.485261
0.487658
0.49003
0.492373
0.494684
0.496959
0.499196
0.501393
0.503548
0.505661
0.507732
0.509763
0.511755
0.51371
0.515631
0.51752
0.519379
0.521211
0.523016
0.524798
0.526557
0.528294
0.530012
0.531712
0.533396
0.535065
0.536721
0.538366
0.540001
0.541628
0.543247
0.54486
0.546467
0.54807
0.549668
0.551259
0.552848
0.554437
0.556024
0.557612
0.559201
0.560793
0.562389
0.563993
0.565608
0.567237
0.568885
0.57056
0.572271
0.574028
0.575849
0.577753
0.57977
0.581942
0.584331
0.587033
0.590206
0.594124
0.599271
0.606503
0.617178
0.632885
0.653188
0.661195
0.665964
0.669536
0.672823
0.676356
0.680551
0.685855
0.692915
0.71015
0.763393
0.796542
0.799934
0.799999
0.799999
0.799871
0.799758
0.799437
0.79903
0.798758
0.781667
0.773722
0.715203
0.687865
0.663928
0.655272
0.645947
0.636664
0.628148
0.620852
0.61531
0.613717
0.232901
0.236187
0.240826
0.246611
0.253304
0.26067
0.268505
0.276636
0.284925
0.29326
0.30155
0.309726
0.317731
0.325525
0.333075
0.34036
0.347364
0.354078
0.360499
0.366626
0.372464
0.378017
0.383294
0.388306
0.393067
0.397591
0.401897
0.406002
0.409925
0.413685
0.417296
0.420773
0.424125
0.427362
0.430493
0.433522
0.436458
0.439307
0.442077
0.444776
0.447415
0.45
0.452543
0.45505
0.45753
0.45999
0.462437
0.464875
0.467308
0.469741
0.472175
0.47461
0.477046
0.479481
0.481912
0.484335
0.486745
0.489138
0.491509
0.493855
0.496169
0.498448
0.500688
0.502886
0.505041
0.507151
0.509217
0.511239
0.51322
0.515163
0.517071
0.518946
0.520792
0.522611
0.524403
0.526171
0.527917
0.529641
0.531346
0.533032
0.534702
0.536358
0.538002
0.539636
0.541263
0.542883
0.544498
0.546109
0.547717
0.549323
0.550927
0.55253
0.55413
0.555733
0.557338
0.558948
0.560564
0.562187
0.56382
0.565467
0.567132
0.568819
0.570536
0.572291
0.574096
0.575966
0.577922
0.579992
0.582215
0.584651
0.587387
0.590565
0.59442
0.599363
0.606142
0.616068
0.631209
0.654162
0.685529
0.690115
0.693301
0.695283
0.696872
0.698502
0.700377
0.702663
0.705846
0.725598
0.782721
0.798985
0.799979
0.8
0.8
0.799999
0.799997
0.799992
0.799986
0.799984
0.799563
0.799319
0.794551
0.697666
0.664548
0.656535
0.647904
0.638975
0.630407
0.622776
0.616763
0.614714
0.244012
0.24718
0.251565
0.256976
0.263212
0.270079
0.277407
0.285048
0.292876
0.300787
0.308695
0.316527
0.324228
0.331752
0.339063
0.346137
0.352955
0.359505
0.365779
0.371773
0.377488
0.382926
0.388093
0.392996
0.397647
0.402059
0.40625
0.410238
0.414043
0.417684
0.421178
0.424541
0.427782
0.430911
0.433933
0.436854
0.439678
0.442412
0.445065
0.447645
0.450163
0.452628
0.455053
0.457445
0.459815
0.46217
0.464518
0.466866
0.469218
0.471579
0.473951
0.476335
0.47873
0.481134
0.483543
0.485951
0.488354
0.490746
0.49312
0.495471
0.497793
0.50008
0.502327
0.504531
0.506688
0.508796
0.510856
0.512869
0.514838
0.516767
0.518659
0.520519
0.522349
0.524153
0.52593
0.527683
0.529414
0.531122
0.53281
0.53448
0.536133
0.537773
0.539402
0.541023
0.542638
0.544249
0.545857
0.547465
0.549074
0.550683
0.552293
0.553906
0.555518
0.557135
0.55876
0.560394
0.562038
0.563695
0.565368
0.567062
0.568781
0.570532
0.572323
0.574166
0.576074
0.578069
0.580175
0.582431
0.58489
0.587632
0.590777
0.59452
0.599191
0.605369
0.614096
0.627129
0.646979
0.676049
0.71169
0.742519
0.770211
0.791937
0.798659
0.798777
0.793608
0.786021
0.75161
0.772429
0.797451
0.799961
0.799999
0.8
0.8
0.8
0.8
0.8
0.8
0.8
0.799994
0.79999
0.799862
0.672294
0.664515
0.65728
0.648795
0.640363
0.631957
0.624226
0.617958
0.615642
0.254826
0.257828
0.261942
0.267001
0.272833
0.279274
0.286176
0.293406
0.300848
0.308404
0.315989
0.32353
0.33097
0.338261
0.345367
0.352259
0.358917
0.365325
0.371474
0.377357
0.382969
0.388311
0.393384
0.398193
0.402744
0.40705
0.411126
0.414989
0.418664
0.422172
0.425535
0.42877
0.43189
0.4349
0.437805
0.440607
0.443307
0.445913
0.448431
0.450873
0.453249
0.455574
0.457859
0.460115
0.462353
0.464583
0.466813
0.469052
0.471306
0.473581
0.475879
0.478203
0.480551
0.48292
0.485304
0.487698
0.490096
0.492489
0.49487
0.497232
0.499568
0.50187
0.504131
0.506346
0.508516
0.510636
0.512697
0.514699
0.516652
0.518562
0.520435
0.522276
0.524088
0.525873
0.527634
0.52937
0.531084
0.532774
0.534443
0.536093
0.537726
0.539346
0.540956
0.542559
0.544159
0.545757
0.547358
0.548961
0.550568
0.55218
0.553797
0.55542
0.557043
0.558677
0.560322
0.561981
0.563656
0.565349
0.567066
0.56881
0.570588
0.572407
0.57428
0.576218
0.578241
0.580374
0.582652
0.585122
0.587854
0.590954
0.594579
0.598987
0.604616
0.612236
0.62321
0.639712
0.664395
0.698443
0.731969
0.777035
0.798306
0.799984
0.8
0.799997
0.799784
0.7997
0.799742
0.799244
0.799935
0.799999
0.8
0.8
0.8
0.8
0.8
0.8
0.8
0.8
0.8
0.8
0.790286
0.671838
0.664723
0.657891
0.649631
0.641311
0.633074
0.625346
0.618959
0.616519
0.265113
0.267951
0.271827
0.276591
0.282096
0.288198
0.294763
0.30167
0.308808
0.316083
0.323409
0.330715
0.337944
0.345046
0.351985
0.35873
0.365261
0.371559
0.377614
0.383415
0.388956
0.394233
0.399242
0.403982
0.408456
0.412669
0.416631
0.420362
0.423889
0.427243
0.430455
0.433547
0.436531
0.439413
0.442192
0.444865
0.44743
0.449891
0.452255
0.454535
0.456745
0.458901
0.461019
0.463112
0.465191
0.467269
0.469356
0.471462
0.473595
0.475765
0.477974
0.480226
0.482517
0.484846
0.487204
0.489584
0.491978
0.494378
0.496772
0.499153
0.501511
0.503837
0.506121
0.508377
0.510582
0.512725
0.514798
0.516798
0.518733
0.52062
0.522468
0.524284
0.526073
0.527838
0.529579
0.531296
0.532988
0.534656
0.536302
0.537926
0.539532
0.541124
0.542707
0.544285
0.545863
0.547445
0.549032
0.550627
0.552231
0.553844
0.555467
0.557099
0.558742
0.560391
0.562058
0.563743
0.56545
0.567182
0.568944
0.570743
0.572586
0.574482
0.576446
0.578494
0.58065
0.582945
0.585424
0.588148
0.591204
0.594725
0.59891
0.604086
0.610809
0.620069
0.633577
0.653893
0.683544
0.721574
0.746451
0.792732
0.799966
0.8
0.8
0.8
0.799999
0.799998
0.799997
0.79999
0.799999
0.8
0.8
0.8
0.8
0.8
0.8
0.8
0.8
0.8
0.8
0.799806
0.756615
0.672307
0.665176
0.658452
0.65039
0.64216
0.633937
0.626249
0.619826
0.617365
0.274777
0.277477
0.281164
0.285705
0.290969
0.296824
0.303147
0.309822
0.316742
0.323812
0.330949
0.338083
0.345154
0.352116
0.358932
0.365572
0.372016
0.378245
0.384247
0.390011
0.395528
0.400789
0.405784
0.410504
0.41494
0.419083
0.422939
0.426526
0.42988
0.43305
0.436079
0.439001
0.441833
0.444577
0.447223
0.44976
0.452178
0.454475
0.45666
0.458747
0.460755
0.462706
0.46462
0.466513
0.468398
0.470289
0.472197
0.474137
0.47612
0.478158
0.480257
0.482419
0.484644
0.486924
0.489253
0.49162
0.494015
0.496425
0.498841
0.501251
0.503644
0.506008
0.50836
0.510673
0.512928
0.51511
0.517203
0.519204
0.521115
0.522971
0.524787
0.526572
0.528335
0.530076
0.531796
0.533492
0.535163
0.536806
0.538424
0.540016
0.541588
0.543144
0.544692
0.546236
0.547785
0.549342
0.550911
0.552495
0.554092
0.555705
0.557332
0.558975
0.560633
0.562299
0.563988
0.565702
0.567446
0.569224
0.571041
0.572906
0.574827
0.576817
0.578893
0.581076
0.583396
0.585892
0.588618
0.591648
0.59509
0.5991
0.603924
0.609959
0.617899
0.628978
0.645278
0.669684
0.704408
0.746287
0.757659
0.797918
0.799982
0.8
0.8
0.8
0.8
0.8
0.8
0.8
0.8
0.8
0.8
0.8
0.8
0.8
0.8
0.8
0.8
0.8
0.799995
0.798753
0.741433
0.672867
0.665674
0.658962
0.651029
0.642905
0.634739
0.627048
0.620606
0.618196
0.283787
0.286382
0.289937
0.294332
0.299443
0.305149
0.311328
0.317866
0.324657
0.331605
0.338627
0.345653
0.352626
0.359501
0.366244
0.372828
0.379233
0.385446
0.391453
0.397244
0.402808
0.408132
0.413197
0.417977
0.422569
0.426828
0.430592
0.434012
0.43714
0.440055
0.442834
0.445533
0.448176
0.450761
0.453263
0.455653
0.457904
0.460006
0.461966
0.463802
0.465544
0.467224
0.46887
0.470501
0.472132
0.473776
0.475449
0.477168
0.478952
0.480816
0.48277
0.484818
0.486957
0.489179
0.491473
0.493826
0.496224
0.498654
0.501102
0.503554
0.505999
0.50844
0.510881
0.513289
0.515641
0.517906
0.520055
0.522065
0.523942
0.525753
0.527521
0.529264
0.530992
0.532706
0.534403
0.536077
0.537723
0.539338
0.540921
0.542473
0.543999
0.545506
0.547002
0.548499
0.550004
0.551526
0.553069
0.554634
0.556222
0.557833
0.559465
0.561118
0.562792
0.564484
0.566198
0.567948
0.569737
0.571571
0.573457
0.575406
0.577428
0.57954
0.581762
0.584122
0.586653
0.589403
0.592434
0.595833
0.599722
0.604287
0.609812
0.616778
0.626034
0.639089
0.65837
0.686849
0.725676
0.768262
0.794554
0.799809
0.799999
0.8
0.8
0.8
0.8
0.8
0.8
0.8
0.8
0.8
0.8
0.8
0.8
0.8
0.8
0.8
0.8
0.8
0.799989
0.79844
0.721377
0.673186
0.666062
0.659389
0.651581
0.643559
0.635462
0.627805
0.621377
0.619032
0.29214
0.294666
0.29815
0.302477
0.307529
0.313186
0.319325
0.325829
0.332587
0.3395
0.346485
0.353473
0.36041
0.367256
0.373982
0.380567
0.386996
0.393261
0.399353
0.405266
0.410988
0.4165
0.421965
0.427574
0.433053
0.438201
0.442666
0.445814
0.448486
0.450837
0.453053
0.455253
0.457491
0.459761
0.462008
0.46415
0.466118
0.46788
0.469439
0.470824
0.472086
0.473287
0.474471
0.475665
0.476883
0.478135
0.479438
0.480815
0.482293
0.483894
0.485633
0.487513
0.489529
0.491668
0.493913
0.496247
0.49865
0.501105
0.503597
0.50611
0.50863
0.511202
0.513786
0.516364
0.51891
0.521373
0.523671
0.525728
0.527556
0.529291
0.530979
0.532652
0.534327
0.536004
0.537674
0.539323
0.540939
0.542517
0.544052
0.545546
0.547003
0.548432
0.549846
0.551263
0.552698
0.554161
0.555659
0.557194
0.558764
0.560367
0.562002
0.563666
0.56536
0.567084
0.568829
0.570622
0.572469
0.574379
0.57636
0.578425
0.580588
0.58287
0.585293
0.587889
0.590697
0.593767
0.597167
0.600993
0.605381
0.610539
0.616802
0.624746
0.635409
0.6506
0.673015
0.705245
0.745946
0.78283
0.798579
0.799947
0.8
0.8
0.8
0.8
0.8
0.8
0.8
0.8
0.8
0.8
0.8
0.8
0.8
0.8
0.8
0.8
0.8
0.8
0.799981
0.798416
0.682344
0.672894
0.666272
0.659745
0.652087
0.64417
0.636149
0.62854
0.62215
0.619883
0.299848
0.302343
0.305816
0.310157
0.315249
0.320968
0.327182
0.333765
0.340595
0.347568
0.354599
0.361621
0.368589
0.375469
0.382242
0.388896
0.395428
0.40184
0.408134
0.41431
0.42036
0.426602
0.433382
0.440502
0.448012
0.455412
0.462151
0.465595
0.467473
0.468664
0.4697
0.470871
0.472328
0.474074
0.475978
0.477821
0.479391
0.480604
0.481454
0.481987
0.482308
0.482564
0.48286
0.483234
0.483693
0.484235
0.484873
0.485639
0.486577
0.487723
0.489095
0.490696
0.492509
0.494511
0.496675
0.498971
0.501374
0.503858
0.506406
0.509001
0.511643
0.514388
0.517207
0.520098
0.523046
0.525979
0.528695
0.530895
0.53264
0.534229
0.535762
0.537301
0.538882
0.540504
0.542144
0.543766
0.545348
0.546877
0.548345
0.549749
0.551093
0.552386
0.553652
0.554922
0.556224
0.557578
0.558992
0.560468
0.562001
0.563586
0.565218
0.566893
0.56861
0.57037
0.572161
0.574011
0.575939
0.577956
0.580073
0.582303
0.584664
0.587177
0.589869
0.592771
0.595924
0.599379
0.603202
0.607494
0.612402
0.618161
0.625166
0.634122
0.646307
0.663855
0.689563
0.724854
0.76416
0.791461
0.799662
0.799994
0.8
0.8
0.8
0.8
0.8
0.8
0.8
0.8
0.8
0.8
0.8
0.8
0.8
0.8
0.8
0.8
0.8
0.8
0.799958
0.795986
0.681686
0.673044
0.66662
0.660158
0.652616
0.644787
0.636835
0.629276
0.622933
0.620752
0.306943
0.309457
0.312989
0.317428
0.322645
0.328505
0.334902
0.341764
0.34879
0.355925
0.363089
0.370222
0.377288
0.384271
0.391165
0.397976
0.404718
0.411411
0.418074
0.424726
0.431604
0.43974
0.44903
0.459468
0.471279
0.482482
0.4941
0.498126
0.498703
0.497435
0.496056
0.495204
0.495271
0.496334
0.498302
0.501349
0.50256
0.502988
0.502615
0.501505
0.499874
0.498172
0.496679
0.495464
0.494487
0.493697
0.493081
0.492689
0.492603
0.492895
0.493594
0.494688
0.496141
0.497902
0.499918
0.502138
0.504522
0.507034
0.50965
0.512353
0.515202
0.518205
0.521394
0.524817
0.528526
0.532477
0.536234
0.538703
0.540295
0.541564
0.542764
0.544027
0.545432
0.546982
0.548613
0.550231
0.551788
0.553263
0.554642
0.555914
0.557072
0.558123
0.559107
0.560095
0.561141
0.562283
0.563537
0.564902
0.566365
0.567912
0.569532
0.571215
0.57296
0.574769
0.576646
0.578565
0.580598
0.582757
0.585053
0.587502
0.59012
0.592931
0.595961
0.59924
0.602804
0.606698
0.610982
0.615751
0.621168
0.627502
0.63524
0.645271
0.659187
0.679454
0.708609
0.745536
0.779157
0.796043
0.799924
0.8
0.8
0.8
0.8
0.8
0.8
0.8
0.8
0.8
0.8
0.8
0.8
0.8
0.8
0.8
0.8
0.8
0.8
0.799999
0.799877
0.779385
0.682242
0.673585
0.667156
0.660689
0.653217
0.645451
0.637551
0.630031
0.623728
0.621641
0.313465
0.316065
0.319752
0.324407
0.329889
0.336036
0.3427
0.349804
0.357039
0.364493
0.372132
0.379458
0.386697
0.393859
0.400966
0.408048
0.415147
0.422309
0.42959
0.437056
0.446467
0.458152
0.47251
0.487505
0.504569
0.516841
0.531438
0.534264
0.533989
0.52955
0.52544
0.52241
0.521199
0.522206
0.527139
0.534277
0.537238
0.537356
0.535808
0.532492
0.527599
0.522544
0.518141
0.514476
0.511317
0.508438
0.505753
0.503344
0.501424
0.500176
0.499671
0.499879
0.500711
0.502061
0.503823
0.505909
0.508246
0.510779
0.513475
0.516316
0.519397
0.522747
0.526455
0.530664
0.5356
0.541344
0.547124
0.54968
0.550983
0.551572
0.552146
0.552919
0.55406
0.555596
0.557689
0.559621
0.561213
0.562667
0.563966
0.565081
0.565972
0.56662
0.567077
0.567532
0.568097
0.56885
0.56982
0.570993
0.572337
0.573821
0.575415
0.577102
0.578876
0.58074
0.582705
0.584755
0.586918
0.589256
0.591781
0.594505
0.597442
0.600615
0.604048
0.607768
0.611807
0.616196
0.620972
0.626223
0.632121
0.638996
0.647487
0.658772
0.674852
0.698428
0.730904
0.766335
0.790014
0.798244
0.799976
0.8
0.8
0.8
0.8
0.8
0.8
0.8
0.8
0.8
0.8
0.8
0.8
0.8
0.8
0.8
0.8
0.8
0.8
0.799985
0.798428
0.757038
0.682954
0.674284
0.66783
0.661346
0.653918
0.646192
0.638321
0.630819
0.624539
0.62255
0.319439
0.322201
0.326152
0.331168
0.337085
0.3437
0.350815
0.358295
0.365861
0.373528
0.381368
0.389326
0.397066
0.404519
0.411959
0.419468
0.427126
0.435035
0.44333
0.453298
0.466776
0.485332
0.506611
0.522827
0.541246
0.547102
0.55171
0.576977
0.58479
0.543062
0.540492
0.538324
0.537744
0.540028
0.548796
0.560499
0.564242
0.566259
0.565775
0.562752
0.555864
0.548216
0.541858
0.536738
0.532176
0.527608
0.522784
0.517838
0.513322
0.509789
0.507481
0.506373
0.5063
0.507061
0.50847
0.510369
0.51264
0.515199
0.517993
0.52101
0.52436
0.528105
0.532403
0.53753
0.54402
0.551955
0.559847
0.561839
0.562775
0.562258
0.562067
0.562253
0.563174
0.564978
0.569358
0.572156
0.574134
0.575687
0.577026
0.57808
0.578731
0.578827
0.578339
0.577863
0.577592
0.577696
0.578222
0.57912
0.580309
0.581713
0.583276
0.584961
0.586753
0.588662
0.590716
0.592939
0.595247
0.597804
0.600611
0.603668
0.606984
0.610574
0.614464
0.618691
0.623293
0.628292
0.633653
0.639435
0.645827
0.653254
0.662668
0.675713
0.694861
0.722499
0.756515
0.784353
0.796592
0.799252
0.79999
0.8
0.8
0.8
0.8
0.8
0.8
0.8
0.8
0.8
0.8
0.8
0.8
0.8
0.8
0.8
0.8
0.8
0.799985
0.799546
0.792488
0.731749
0.683443
0.674988
0.668596
0.66213
0.654744
0.647039
0.639169
0.631653
0.625367
0.62348
0.324895
0.327903
0.332252
0.337817
0.344399
0.351723
0.359506
0.367529
0.375557
0.383584
0.391693
0.399775
0.408124
0.416646
0.424604
0.432753
0.441276
0.450389
0.460405
0.475869
0.496176
0.523457
0.547521
0.556922
0.56376
0.688094
0.790461
0.795479
0.786624
0.76954
0.597486
0.550771
0.549885
0.55376
0.568883
0.575972
0.624574
0.739239
0.734159
0.616296
0.565921
0.560586
0.556541
0.553407
0.55025
0.546272
0.540917
0.534116
0.52689
0.520722
0.5163
0.513662
0.512558
0.512671
0.513711
0.515441
0.517681
0.520303
0.523234
0.52646
0.53007
0.534157
0.538943
0.544856
0.552876
0.56216
0.568687
0.584465
0.598372
0.571823
0.571095
0.570705
0.571553
0.575037
0.584881
0.590138
0.592216
0.594055
0.596248
0.597523
0.598189
0.597623
0.595005
0.592619
0.590704
0.589615
0.589423
0.589936
0.590936
0.592257
0.593787
0.595451
0.59722
0.599114
0.601214
0.603573
0.606201
0.608989
0.612062
0.615412
0.619045
0.622991
0.627305
0.632075
0.637422
0.643389
0.649636
0.656179
0.663219
0.671371
0.682383
0.698654
0.722646
0.753818
0.781584
0.795449
0.799359
0.799986
0.8
0.8
0.8
0.8
0.8
0.8
0.8
0.8
0.8
0.8
0.8
0.8
0.8
0.8
0.8
0.8
0.8
0.799999
0.799942
0.798646
0.781904
0.692573
0.683327
0.67566
0.669474
0.66308
0.655735
0.648029
0.640103
0.632544
0.626229
0.624434
0.32987
0.333219
0.338137
0.344515
0.352099
0.360477
0.369206
0.377978
0.386612
0.395116
0.40357
0.41195
0.420543
0.429805
0.439529
0.448698
0.458619
0.469808
0.485297
0.511933
0.537098
0.566462
0.575352
0.670031
0.788395
0.798473
0.799899
0.799962
0.799896
0.799718
0.794466
0.626668
0.567222
0.572235
0.591378
0.746309
0.79919
0.799718
0.799383
0.793154
0.609379
0.568669
0.566934
0.5663
0.565396
0.563283
0.558864
0.550914
0.540402
0.531331
0.524841
0.520813
0.518825
0.518429
0.519236
0.52093
0.523261
0.526047
0.529172
0.532625
0.536418
0.540666
0.545622
0.551931
0.561255
0.570743
0.657686
0.795839
0.796783
0.785322
0.640529
0.580974
0.580791
0.585563
0.597098
0.682591
0.793489
0.77727
0.798535
0.799334
0.790186
0.668233
0.604126
0.602398
0.600573
0.599471
0.599494
0.600307
0.601605
0.603189
0.604927
0.606724
0.608526
0.610373
0.612495
0.614986
0.617849
0.620929
0.624321
0.628017
0.63204
0.636459
0.641406
0.647132
0.654059
0.662409
0.670404
0.678377
0.686634
0.696293
0.711742
0.736295
0.765367
0.786746
0.796364
0.799285
0.799916
0.799999
0.8
0.8
0.8
0.8
0.8
0.8
0.8
0.8
0.8
0.8
0.8
0.8
0.8
0.8
0.8
0.8
0.8
0.8
0.799945
0.798996
0.784531
0.692748
0.683964
0.676672
0.670613
0.664284
0.65687
0.649143
0.641189
0.63356
0.627164
0.625414
0.334404
0.338198
0.34391
0.351498
0.360626
0.370608
0.38067
0.390442
0.39983
0.40891
0.417809
0.426636
0.435686
0.445323
0.456352
0.468547
0.481067
0.496477
0.530441
0.571142
0.588572
0.600705
0.77424
0.79748
0.79983
0.799985
0.799999
0.8
0.799999
0.799998
0.79994
0.780077
0.681658
0.596608
0.656325
0.787943
0.799873
0.799998
0.799997
0.799948
0.790002
0.595871
0.661363
0.706514
0.690819
0.62594
0.587594
0.554723
0.545446
0.537313
0.53088
0.526571
0.524321
0.523827
0.524725
0.526665
0.529336
0.532478
0.535879
0.539539
0.543385
0.547496
0.552099
0.558126
0.567679
0.712691
0.797558
0.799962
0.799983
0.799825
0.795232
0.620054
0.587378
0.59806
0.612055
0.7083
0.798565
0.799798
0.799988
0.799994
0.799951
0.799034
0.796964
0.683542
0.607476
0.606815
0.607815
0.609446
0.611389
0.613484
0.615623
0.617695
0.619574
0.621242
0.623384
0.626083
0.629263
0.632851
0.636735
0.641019
0.645757
0.651115
0.65738
0.665209
0.675973
0.690861
0.701757
0.712921
0.727405
0.746165
0.768399
0.785909
0.794935
0.798451
0.799605
0.799922
0.799991
0.8
0.8
0.8
0.8
0.8
0.8
0.8
0.8
0.8
0.8
0.8
0.8
0.8
0.8
0.8
0.8
0.8
0.8
0.8
0.799995
0.79994
0.798203
0.694138
0.685273
0.678112
0.67206
0.665639
0.658277
0.650531
0.6425
0.634737
0.628188
0.626417
0.338531
0.342866
0.349661
0.359095
0.370748
0.383344
0.395336
0.406428
0.416717
0.426442
0.435871
0.445267
0.45499
0.465457
0.477356
0.492732
0.512931
0.540124
0.60383
0.625397
0.749802
0.790885
0.799467
0.799969
0.799998
0.8
0.8
0.8
0.8
0.8
0.799999
0.799712
0.763386
0.613373
0.707524
0.795451
0.79995
0.8
0.8
0.8
0.694781
0.625916
0.755465
0.797312
0.79477
0.684574
0.614099
0.55777
0.548494
0.541014
0.535001
0.530919
0.528888
0.528737
0.53016
0.532798
0.536257
0.54025
0.543964
0.547745
0.551541
0.555372
0.559468
0.564681
0.573235
0.746746
0.798816
0.799987
0.8
0.799998
0.79988
0.644993
0.614209
0.686767
0.691167
0.746683
0.799284
0.799995
0.8
0.8
0.8
0.799997
0.799991
0.784143
0.622937
0.621296
0.622426
0.624404
0.62672
0.629164
0.631625
0.633907
0.635564
0.635877
0.637648
0.640653
0.644474
0.648938
0.653876
0.65937
0.665539
0.672845