/*--------------------------------*- C++ -*----------------------------------*\
| =========                 |                                                 |
| \\      /  F ield         | OpenFOAM: The Open Source CFD Toolbox           |
|  \\    /   O peration     | Version:  2.1.0                                 |
|   \\  /    A nd           | Web:      www.OpenFOAM.org                      |
|    \\/     M anipulation  |                                                 |
\*---------------------------------------------------------------------------*/
FoamFile
{
    version     2.0;
    format      ascii;
    class       volScalarField;
    location    "40150";
    object      sw;
}
// * * * * * * * * * * * * * * * * * * * * * * * * * * * * * * * * * * * * * //

dimensions      [0 0 0 0 0 0 0];

internalField   nonuniform List<scalar> 
15000
(
0.8
0.8
0.799997
0.799865
0.798679
0.794591
0.786821
0.776382
0.764704
0.752761
0.741055
0.72981
0.719111
0.70898
0.699408
0.690374
0.68185
0.673809
0.66622
0.659055
0.652285
0.645882
0.63982
0.634073
0.628617
0.623429
0.618487
0.613771
0.609261
0.604939
0.600788
0.596791
0.592934
0.589203
0.585587
0.582074
0.578657
0.575326
0.572075
0.568896
0.565782
0.562729
0.559731
0.556784
0.553883
0.551024
0.548206
0.545425
0.542679
0.539967
0.537288
0.534642
0.532029
0.529448
0.526902
0.524389
0.521912
0.519471
0.517068
0.514702
0.512375
0.510086
0.507837
0.505626
0.503453
0.501318
0.49922
0.497158
0.49513
0.493135
0.491173
0.489241
0.487338
0.485462
0.483613
0.481788
0.479986
0.478207
0.476449
0.47471
0.472991
0.471289
0.469605
0.467938
0.466287
0.464652
0.463033
0.46143
0.459842
0.45827
0.456714
0.455173
0.45365
0.452143
0.450655
0.449185
0.447735
0.446305
0.444897
0.443512
0.442151
0.440816
0.439507
0.438226
0.436974
0.435753
0.434564
0.433408
0.432286
0.431198
0.430144
0.429125
0.428139
0.427186
0.426265
0.425373
0.42451
0.423675
0.422866
0.422078
0.421305
0.420537
0.419756
0.418941
0.418065
0.4171
0.416033
0.414895
0.4138
0.412897
0.412215
0.411729
0.411391
0.411053
0.410711
0.41036
0.409997
0.409618
0.409222
0.408803
0.408355
0.407866
0.407322
0.406698
0.405964
0.405066
0.403919
0.402346
0.399893
0.394444
0.8
0.8
0.799982
0.799643
0.797696
0.792495
0.783908
0.773154
0.761498
0.749729
0.738244
0.727219
0.716722
0.706768
0.697349
0.688447
0.680038
0.672095
0.664591
0.6575
0.650795
0.644449
0.638438
0.632737
0.627321
0.622171
0.617263
0.612579
0.608098
0.603804
0.599679
0.595707
0.591872
0.588163
0.584567
0.581074
0.577677
0.574365
0.571133
0.567973
0.564878
0.561844
0.558864
0.555935
0.553051
0.55021
0.547407
0.544641
0.54191
0.539211
0.536545
0.53391
0.531307
0.528736
0.526198
0.523693
0.521222
0.518786
0.516387
0.514025
0.511701
0.509415
0.507167
0.504958
0.502786
0.500652
0.498555
0.496494
0.494467
0.492474
0.490513
0.488582
0.48668
0.484806
0.482958
0.481134
0.479334
0.477555
0.475798
0.47406
0.47234
0.470638
0.468954
0.467286
0.465634
0.463998
0.462376
0.460769
0.459178
0.457601
0.456039
0.454493
0.452961
0.451445
0.449946
0.448464
0.447
0.445555
0.444129
0.442723
0.441338
0.439976
0.438635
0.437318
0.436026
0.434757
0.433514
0.432294
0.431098
0.429925
0.428772
0.427636
0.426516
0.425408
0.424307
0.423212
0.422118
0.421025
0.41993
0.41883
0.417712
0.416546
0.415287
0.413863
0.412179
0.410126
0.407622
0.404733
0.401903
0.399839
0.398499
0.39772
0.397346
0.397125
0.397048
0.397086
0.397177
0.397296
0.397463
0.397708
0.398048
0.398465
0.398916
0.399342
0.399676
0.399845
0.399746
0.399204
0.397769
0.393331
0.799998
0.799983
0.799825
0.798808
0.795433
0.788772
0.779387
0.768479
0.757017
0.745572
0.73443
0.723725
0.71351
0.7038
0.694591
0.685868
0.677613
0.669802
0.662413
0.655422
0.648805
0.642539
0.636599
0.630962
0.625606
0.620511
0.615654
0.611017
0.606582
0.60233
0.598244
0.594308
0.590509
0.586833
0.583271
0.579811
0.576445
0.573165
0.569964
0.566835
0.56377
0.560766
0.557815
0.554913
0.552056
0.549241
0.546462
0.543719
0.541008
0.538328
0.535679
0.53306
0.53047
0.527911
0.525382
0.522885
0.520421
0.517991
0.515597
0.513239
0.510918
0.508635
0.506389
0.504182
0.502012
0.499881
0.497786
0.495727
0.493703
0.491712
0.489753
0.487825
0.485927
0.484055
0.48221
0.480389
0.478591
0.476815
0.47506
0.473324
0.471606
0.469905
0.468221
0.466554
0.464902
0.463264
0.461641
0.460032
0.458437
0.456856
0.455289
0.453736
0.452196
0.450671
0.44916
0.447664
0.446184
0.44472
0.443273
0.441842
0.440429
0.439034
0.437656
0.436295
0.434952
0.433626
0.432315
0.431016
0.429729
0.428447
0.427167
0.425883
0.424586
0.423268
0.421918
0.420523
0.419072
0.417556
0.415973
0.414334
0.412628
0.410806
0.408771
0.406372
0.403396
0.399578
0.394669
0.388666
0.382776
0.379396
0.377485
0.37649
0.3761
0.37616
0.376678
0.377594
0.378627
0.379693
0.38087
0.382283
0.383993
0.385941
0.388018
0.390087
0.392017
0.39369
0.394989
0.395736
0.395492
0.392157
0.799874
0.799661
0.798836
0.796347
0.79114
0.783191
0.773349
0.762554
0.751466
0.740468
0.729761
0.719448
0.709575
0.700158
0.6912
0.682692
0.67462
0.666969
0.659719
0.65285
0.646342
0.640173
0.634321
0.628765
0.623485
0.618459
0.613668
0.609094
0.604716
0.600519
0.596485
0.592599
0.588847
0.585217
0.581699
0.578283
0.574961
0.571725
0.568567
0.565479
0.562456
0.559491
0.55658
0.553716
0.550895
0.548113
0.545367
0.542653
0.53997
0.537315
0.534687
0.532087
0.529514
0.526969
0.524452
0.521965
0.519509
0.517086
0.514697
0.512343
0.510026
0.507745
0.505502
0.503297
0.501131
0.499002
0.49691
0.494855
0.492834
0.490848
0.488893
0.48697
0.485076
0.483209
0.481368
0.479552
0.477758
0.475986
0.474235
0.472502
0.470787
0.46909
0.467408
0.465742
0.464091
0.462453
0.460829
0.459218
0.45762
0.456035
0.454462
0.452902
0.451353
0.449817
0.448293
0.446782
0.445284
0.443799
0.442327
0.440868
0.439422
0.437989
0.436567
0.435156
0.433754
0.432359
0.430968
0.429577
0.428179
0.426767
0.425333
0.423862
0.422339
0.420743
0.419044
0.417203
0.415176
0.412926
0.410468
0.407899
0.405262
0.402488
0.399408
0.39576
0.391173
0.385164
0.377193
0.366807
0.356826
0.353518
0.351778
0.350864
0.35048
0.350846
0.352123
0.354387
0.356679
0.358803
0.361042
0.363753
0.367123
0.370998
0.375158
0.379342
0.383301
0.386843
0.38982
0.392054
0.393123
0.390942
0.798775
0.797828
0.795599
0.79128
0.78458
0.775938
0.766087
0.755659
0.74508
0.734609
0.724392
0.714513
0.705017
0.695924
0.687243
0.678974
0.671108
0.663636
0.656542
0.649812
0.643427
0.63737
0.63162
0.626159
0.620967
0.616025
0.611312
0.606812
0.602505
0.598375
0.594405
0.590579
0.586886
0.583314
0.579852
0.576492
0.573225
0.570043
0.566938
0.563904
0.560933
0.55802
0.555158
0.552342
0.549567
0.546828
0.544122
0.541445
0.538795
0.536171
0.53357
0.530994
0.528441
0.525912
0.523409
0.520933
0.518486
0.51607
0.513686
0.511337
0.509022
0.506744
0.504504
0.502302
0.500139
0.498014
0.495926
0.493875
0.49186
0.489879
0.48793
0.486013
0.484125
0.482265
0.48043
0.47862
0.476832
0.475066
0.47332
0.471593
0.469883
0.46819
0.466512
0.464849
0.463199
0.461562
0.459938
0.458326
0.456724
0.455135
0.453556
0.451988
0.45043
0.448882
0.447344
0.445816
0.444298
0.442789
0.44129
0.439799
0.438316
0.43684
0.435368
0.4339
0.432432
0.430959
0.429477
0.427978
0.426452
0.424888
0.423268
0.42157
0.419762
0.417797
0.415605
0.413085
0.410099
0.406534
0.402478
0.398418
0.394516
0.390643
0.386503
0.381694
0.375684
0.367774
0.357089
0.342084
0.329752
0.329188
0.327775
0.327119
0.326671
0.326949
0.328459
0.332278
0.335666
0.338229
0.340813
0.344235
0.34903
0.354805
0.361172
0.367735
0.374018
0.379674
0.384501
0.388325
0.390752
0.389716
0.794985
0.792943
0.789249
0.783618
0.776206
0.767485
0.757971
0.748075
0.73808
0.728171
0.718464
0.709036
0.69993
0.691175
0.682785
0.674767
0.667119
0.659837
0.652912
0.64633
0.64008
0.634145
0.628508
0.623152
0.618058
0.61321
0.608587
0.604173
0.599948
0.595895
0.591999
0.588246
0.584622
0.581118
0.577724
0.57443
0.571229
0.568113
0.565074
0.562104
0.559197
0.556346
0.553545
0.550787
0.548068
0.545382
0.542725
0.540093
0.537484
0.534896
0.532328
0.529779
0.527249
0.52474
0.522253
0.519789
0.517352
0.514942
0.512563
0.510217
0.507906
0.50563
0.503392
0.501193
0.499033
0.496911
0.494829
0.492783
0.490775
0.488801
0.48686
0.484951
0.48307
0.481218
0.479391
0.477589
0.475809
0.47405
0.472312
0.470591
0.468888
0.467201
0.465528
0.463869
0.462223
0.460588
0.458964
0.457351
0.455747
0.454153
0.452568
0.450992
0.449424
0.447864
0.44631
0.444764
0.443223
0.441689
0.440159
0.438634
0.43711
0.435587
0.434061
0.432529
0.430987
0.429428
0.427843
0.426223
0.424552
0.422812
0.420974
0.419001
0.416834
0.414381
0.411494
0.407933
0.403356
0.397459
0.390526
0.384424
0.379248
0.374552
0.369805
0.364451
0.35786
0.349247
0.337614
0.319878
0.313949
0.298468
0.279803
0.250792
0.23836
0.253788
0.28107
0.322792
0.325165
0.326092
0.327132
0.329289
0.333945
0.340386
0.347979
0.356572
0.365085
0.372809
0.37943
0.384777
0.388488
0.388511
0.787752
0.784868
0.780328
0.774189
0.766729
0.758327
0.749339
0.740045
0.730651
0.721303
0.712101
0.703116
0.694398
0.685979
0.677882
0.670117
0.662692
0.655604
0.648851
0.642424
0.636313
0.630505
0.624987
0.619744
0.614758
0.610012
0.605488
0.601169
0.597036
0.593071
0.58926
0.585588
0.582045
0.57862
0.575303
0.572087
0.568964
0.565924
0.562962
0.560069
0.557238
0.554462
0.551733
0.549046
0.546393
0.54377
0.541172
0.538594
0.536034
0.533489
0.530959
0.528442
0.52594
0.523452
0.520982
0.518532
0.516103
0.513701
0.511326
0.508982
0.506672
0.504398
0.502161
0.499964
0.497806
0.495689
0.493612
0.491574
0.489573
0.487607
0.485676
0.483776
0.481905
0.480062
0.478245
0.476452
0.474682
0.472933
0.471203
0.469492
0.467797
0.466118
0.464453
0.4628
0.461158
0.459527
0.457905
0.456291
0.454685
0.453087
0.451495
0.449912
0.448333
0.446759
0.445189
0.443623
0.442059
0.440496
0.438934
0.437371
0.435804
0.434229
0.432645
0.431044
0.429421
0.427767
0.426069
0.424314
0.42248
0.420538
0.418446
0.416142
0.413525
0.410432
0.406577
0.401477
0.394392
0.384577
0.372611
0.36457
0.358846
0.354168
0.349697
0.344797
0.338874
0.331273
0.321193
0.303601
0.264868
0.200209
0.200004
0.2
0.200362
0.212617
0.216793
0.227049
0.238603
0.247519
0.268113
0.292211
0.327535
0.332176
0.338265
0.347785
0.357852
0.367095
0.37509
0.38166
0.386442
0.387359
0.778003
0.774753
0.76999
0.7639
0.756757
0.748854
0.740452
0.731761
0.722945
0.714127
0.705402
0.696839
0.688492
0.680397
0.672582
0.665065
0.657856
0.65096
0.644377
0.638104
0.632132
0.626454
0.621058
0.61593
0.611056
0.606419
0.602002
0.597786
0.593754
0.589886
0.58617
0.582591
0.579138
0.575802
0.572573
0.569445
0.56641
0.56346
0.560587
0.557784
0.555042
0.552353
0.54971
0.547105
0.544532
0.541984
0.539455
0.536941
0.534439
0.531945
0.529459
0.52698
0.524509
0.522046
0.519595
0.517158
0.514739
0.512342
0.50997
0.507627
0.505316
0.503041
0.500804
0.498607
0.496452
0.494339
0.492268
0.490237
0.488245
0.48629
0.484369
0.48248
0.480621
0.478789
0.476984
0.475202
0.473443
0.471706
0.469988
0.468288
0.466604
0.464935
0.463279
0.461634
0.459999
0.458372
0.456753
0.45514
0.453533
0.45193
0.450332
0.448741
0.447152
0.445563
0.443976
0.442388
0.440799
0.439207
0.437611
0.436007
0.434392
0.432763
0.431115
0.42944
0.427729
0.425972
0.424151
0.422247
0.42023
0.418058
0.415669
0.412967
0.409794
0.405876
0.400729
0.393497
0.382822
0.367115
0.346812
0.338805
0.334036
0.330464
0.327177
0.323644
0.319449
0.314145
0.307085
0.28985
0.236607
0.203458
0.200066
0.200001
0.200001
0.200129
0.200242
0.200563
0.20097
0.201242
0.218333
0.226278
0.284797
0.312135
0.336072
0.344728
0.354053
0.363336
0.371852
0.379148
0.38469
0.386283
0.767099
0.763813
0.759174
0.753389
0.746696
0.73933
0.731495
0.723364
0.715075
0.70674
0.69845
0.690274
0.682269
0.674475
0.666925
0.65964
0.652636
0.645922
0.639501
0.633374
0.627536
0.621983
0.616706
0.611694
0.606933
0.602409
0.598103
0.593998
0.590075
0.586315
0.582704
0.579227
0.575875
0.572638
0.569507
0.566478
0.563542
0.560693
0.557923
0.555224
0.552585
0.55
0.547457
0.54495
0.54247
0.54001
0.537563
0.535125
0.532692
0.530259
0.527825
0.52539
0.522954
0.520519
0.518088
0.515665
0.513255
0.510862
0.508491
0.506145
0.503831
0.501552
0.499312
0.497114
0.494959
0.492849
0.490783
0.488761
0.48678
0.484837
0.482929
0.481054
0.479208
0.477389
0.475597
0.473829
0.472083
0.470359
0.468654
0.466968
0.465298
0.463642
0.461998
0.460364
0.458737
0.457117
0.455502
0.453891
0.452283
0.450677
0.449073
0.44747
0.44587
0.444267
0.442662
0.441052
0.439436
0.437813
0.43618
0.434533
0.432868
0.431181
0.429464
0.427709
0.425904
0.424034
0.422078
0.420008
0.417785
0.415349
0.412613
0.409435
0.40558
0.400637
0.393858
0.383932
0.368791
0.345838
0.314471
0.309885
0.306699
0.304717
0.303128
0.301498
0.299623
0.297337
0.294154
0.274402
0.217279
0.201015
0.200021
0.2
0.2
0.200001
0.200003
0.200008
0.200014
0.200016
0.200437
0.200681
0.205449
0.302334
0.335452
0.343465
0.352096
0.361025
0.369593
0.377224
0.383237
0.385286
0.755988
0.75282
0.748435
0.743024
0.736788
0.729921
0.722593
0.714952
0.707124
0.699213
0.691305
0.683473
0.675772
0.668248
0.660937
0.653863
0.647045
0.640495
0.634221
0.628227
0.622512
0.617074
0.611907
0.607004
0.602353
0.597941
0.59375
0.589762
0.585957
0.582316
0.578822
0.575459
0.572218
0.569089
0.566067
0.563146
0.560322
0.557588
0.554935
0.552355
0.549837
0.547372
0.544947
0.542555
0.540185
0.53783
0.535482
0.533134
0.530782
0.528421
0.526049
0.523665
0.52127
0.518866
0.516457
0.514049
0.511646
0.509254
0.50688
0.504529
0.502207
0.49992
0.497673
0.495469
0.493312
0.491204
0.489144
0.487131
0.485162
0.483233
0.481341
0.479481
0.477651
0.475847
0.47407
0.472317
0.470586
0.468878
0.46719
0.46552
0.463867
0.462227
0.460598
0.458977
0.457362
0.455751
0.454143
0.452535
0.450926
0.449317
0.447707
0.446094
0.444482
0.442865
0.44124
0.439606
0.437962
0.436305
0.434632
0.432938
0.431219
0.429468
0.427677
0.425834
0.423926
0.421931
0.419825
0.417569
0.41511
0.412368
0.409223
0.40548
0.400809
0.394631
0.385904
0.372871
0.353021
0.323951
0.28831
0.257481
0.229789
0.208063
0.201341
0.201223
0.206392
0.213979
0.24839
0.227571
0.202549
0.200039
0.200001
0.2
0.2
0.2
0.2
0.2
0.2
0.2
0.200006
0.20001
0.200138
0.327706
0.335485
0.34272
0.351205
0.359637
0.368043
0.375774
0.382042
0.384358
0.745174
0.742172
0.738058
0.732999
0.727167
0.720726
0.713824
0.706594
0.699152
0.691596
0.684011
0.67647
0.66903
0.661739
0.654633
0.647741
0.641083
0.634675
0.628526
0.622643
0.617031
0.611689
0.606616
0.601807
0.597256
0.59295
0.588874
0.585011
0.581336
0.577828
0.574465
0.57123
0.56811
0.5651
0.562195
0.559393
0.556693
0.554087
0.551569
0.549127
0.546751
0.544426
0.542141
0.539885
0.537647
0.535417
0.533187
0.530948
0.528694
0.526419
0.524121
0.521797
0.519449
0.51708
0.514696
0.512302
0.509904
0.507511
0.50513
0.502768
0.500432
0.49813
0.495869
0.493654
0.491484
0.489364
0.487303
0.485301
0.483348
0.481438
0.479565
0.477724
0.475912
0.474127
0.472366
0.47063
0.468916
0.467226
0.465557
0.463907
0.462274
0.460654
0.459044
0.457441
0.455841
0.454243
0.452642
0.451039
0.449432
0.44782
0.446203
0.44458
0.442957
0.441323
0.439678
0.438019
0.436344
0.434651
0.432934
0.43119
0.429412
0.427593
0.42572
0.423782
0.421759
0.419626
0.417348
0.414878
0.412146
0.409046
0.405421
0.401013
0.395384
0.387764
0.37679
0.360288
0.335605
0.301557
0.268031
0.222965
0.201694
0.200016
0.2
0.200003
0.200216
0.2003
0.200258
0.200756
0.200065
0.200001
0.2
0.2
0.2
0.2
0.2
0.2
0.2
0.2
0.2
0.2
0.209714
0.328162
0.335277
0.342109
0.350369
0.358689
0.366926
0.374654
0.381041
0.383481
0.734887
0.732049
0.728173
0.723409
0.717904
0.711802
0.705237
0.69833
0.691192
0.683917
0.676591
0.669285
0.662056
0.654954
0.648015
0.64127
0.634739
0.628441
0.622386
0.616585
0.611044
0.605767
0.600758
0.596018
0.591544
0.587331
0.583369
0.579638
0.576111
0.572757
0.569545
0.566453
0.563469
0.560587
0.557808
0.555135
0.55257
0.550109
0.547745
0.545465
0.543255
0.541099
0.538981
0.536888
0.534809
0.532731
0.530644
0.528538
0.526405
0.524235
0.522026
0.519774
0.517483
0.515154
0.512796
0.510416
0.508022
0.505622
0.503228
0.500847
0.498489
0.496163
0.493879
0.491623
0.489418
0.487275
0.485202
0.483202
0.481267
0.47938
0.477532
0.475716
0.473927
0.472162
0.470421
0.468704
0.467012
0.465344
0.463698
0.462074
0.460468
0.458876
0.457293
0.455715
0.454137
0.452555
0.450968
0.449373
0.447769
0.446156
0.444533
0.442901
0.441258
0.439609
0.437942
0.436257
0.43455
0.432818
0.431056
0.429257
0.427414
0.425518
0.423554
0.421506
0.41935
0.417055
0.414576
0.411852
0.408796
0.405275
0.40109
0.395914
0.389191
0.379931
0.366423
0.346107
0.316456
0.278426
0.253549
0.207268
0.200034
0.2
0.2
0.2
0.200001
0.200002
0.200003
0.20001
0.200001
0.2
0.2
0.2
0.2
0.2
0.2
0.2
0.2
0.2
0.2
0.200194
0.243385
0.327693
0.334824
0.341548
0.34961
0.35784
0.366063
0.373751
0.380174
0.382635
0.725223
0.722523
0.718836
0.714295
0.709031
0.703176
0.696853
0.690178
0.683258
0.676188
0.669051
0.661917
0.654846
0.647884
0.641068
0.634428
0.627984
0.621755
0.615753
0.609989
0.604472
0.599211
0.594216
0.589496
0.58506
0.580917
0.577061
0.573474
0.57012
0.56695
0.563921
0.560999
0.558167
0.555423
0.552777
0.55024
0.547822
0.545525
0.54334
0.541253
0.539245
0.537294
0.53538
0.533487
0.531602
0.529711
0.527803
0.525863
0.52388
0.521842
0.519743
0.517581
0.515356
0.513076
0.510747
0.50838
0.505985
0.503575
0.501159
0.498749
0.496356
0.493992
0.49164
0.489327
0.487072
0.48489
0.482797
0.480796
0.478885
0.477029
0.475213
0.473428
0.471665
0.469924
0.468204
0.466508
0.464837
0.463194
0.461576
0.459984
0.458412
0.456856
0.455308
0.453764
0.452215
0.450658
0.449089
0.447505
0.445908
0.444295
0.442668
0.441025
0.439367
0.437701
0.436012
0.434298
0.432554
0.430776
0.428959
0.427094
0.425173
0.423183
0.421107
0.418924
0.416604
0.414108
0.411382
0.408352
0.40491
0.4009
0.396076
0.390041
0.382101
0.371022
0.354722
0.330316
0.295592
0.253713
0.242341
0.202082
0.200018
0.2
0.2
0.2
0.2
0.2
0.2
0.2
0.2
0.2
0.2
0.2
0.2
0.2
0.2
0.2
0.2
0.2
0.200005
0.201247
0.258567
0.327133
0.334326
0.341038
0.348971
0.357095
0.365261
0.372952
0.379394
0.381804
0.716213
0.713618
0.710063
0.705668
0.700557
0.694851
0.688672
0.682134
0.675343
0.668395
0.661373
0.654347
0.647374
0.640499
0.633756
0.627172
0.620767
0.614554
0.608547
0.602756
0.597192
0.591868
0.586803
0.582023
0.577431
0.573172
0.569408
0.565988
0.56286
0.559945
0.557166
0.554467
0.551824
0.549239
0.546737
0.544347
0.542096
0.539994
0.538034
0.536198
0.534456
0.532776
0.53113
0.529499
0.527868
0.526224
0.524551
0.522832
0.521048
0.519184
0.51723
0.515182
0.513043
0.510821
0.508527
0.506174
0.503776
0.501346
0.498898
0.496446
0.494001
0.49156
0.489119
0.486711
0.484359
0.482094
0.479945
0.477935
0.476058
0.474247
0.472479
0.470736
0.469008
0.467294
0.465597
0.463923
0.462277
0.460662
0.459079
0.457527
0.456001
0.454494
0.452998
0.451501
0.449996
0.448474
0.446931
0.445366
0.443778
0.442167
0.440535
0.438882
0.437208
0.435516
0.433802
0.432052
0.430263
0.428429
0.426543
0.424594
0.422572
0.42046
0.418238
0.415878
0.413347
0.410597
0.407566
0.404167
0.400278
0.395713
0.390188
0.383222
0.373966
0.360911
0.34163
0.313151
0.274324
0.231738
0.205446
0.200191
0.200001
0.2
0.2
0.2
0.2
0.2
0.2
0.2
0.2
0.2
0.2
0.2
0.2
0.2
0.2
0.2
0.2
0.2
0.200011
0.20156
0.278623
0.326814
0.333938
0.340611
0.348419
0.356441
0.364538
0.372195
0.378623
0.380968
0.70786
0.705334
0.70185
0.697523
0.692471
0.686814
0.680675
0.674171
0.667413
0.6605
0.653515
0.646527
0.63959
0.632744
0.626018
0.619433
0.613004
0.606739
0.600647
0.594734
0.589012
0.5835
0.578035
0.572426
0.566947
0.561799
0.557334
0.554186
0.551514
0.549163
0.546947
0.544747
0.542509
0.540239
0.537992
0.53585
0.533882
0.53212
0.530561
0.529176
0.527914
0.526713
0.525529
0.524335
0.523117
0.521865
0.520562
0.519185
0.517707
0.516106
0.514367
0.512487
0.510471
0.508332
0.506087
0.503753
0.50135
0.498895
0.496403
0.49389
0.49137
0.488798
0.486214
0.483636
0.48109
0.478627
0.476329
0.474272
0.472444
0.470709
0.469021
0.467348
0.465673
0.463996
0.462326
0.460677
0.459061
0.457483
0.455948
0.454454
0.452997
0.451568
0.450154
0.448737
0.447302
0.445839
0.444341
0.442806
0.441236
0.439633
0.437998
0.436334
0.43464
0.432916
0.431171
0.429378
0.427531
0.425621
0.42364
0.421575
0.419412
0.41713
0.414707
0.412111
0.409303
0.406233
0.402833
0.399007
0.394619
0.389461
0.383198
0.375254
0.364591
0.3494
0.326985
0.294755
0.254054
0.21717
0.201421
0.200053
0.2
0.2
0.2
0.2
0.2
0.2
0.2
0.2
0.2
0.2
0.2
0.2
0.2
0.2
0.2
0.2
0.2
0.2
0.200019
0.201584
0.317656
0.327106
0.333728
0.340255
0.347913
0.35583
0.363851
0.37146
0.37785
0.380117
0.700152
0.697657
0.694184
0.689843
0.684751
0.679032
0.672818
0.666235
0.659405
0.652432
0.645401
0.638379
0.631411
0.624531
0.617758
0.611104
0.604572
0.59816
0.591866
0.58569
0.57964
0.573398
0.566618
0.559498
0.551988
0.544588
0.537849
0.534405
0.532527
0.531336
0.5303
0.529129
0.527672
0.525926
0.524022
0.522179
0.520609
0.519396
0.518546
0.518013
0.517692
0.517436
0.51714
0.516766
0.516307
0.515765
0.515127
0.514361
0.513423
0.512277
0.510905
0.509304
0.507491
0.505489
0.503325
0.501029
0.498626
0.496142
0.493594
0.490999
0.488357
0.485612
0.482793
0.479902
0.476954
0.474021
0.471305
0.469105
0.46736
0.465771
0.464238
0.462699
0.461118
0.459496
0.457856
0.456234
0.454652
0.453123
0.451655
0.450251
0.448907
0.447614
0.446348
0.445078
0.443776
0.442422
0.441008
0.439532
0.437999
0.436414
0.434782
0.433107
0.43139
0.42963
0.427839
0.425989
0.424061
0.422044
0.419927
0.417697
0.415336
0.412823
0.410131
0.407229
0.404076
0.400621
0.396798
0.392506
0.387598
0.381839
0.374834
0.365878
0.353693
0.336145
0.310437
0.275146
0.23584
0.208539
0.200338
0.200006
0.2
0.2
0.2
0.2
0.2
0.2
0.2
0.2
0.2
0.2
0.2
0.2
0.2
0.2
0.2
0.2
0.2
0.2
0.200042
0.204014
0.318314
0.326956
0.33338
0.339842
0.347384
0.355213
0.363165
0.370724
0.377067
0.379248
0.693057
0.690543
0.687011
0.682572
0.677355
0.671495
0.665098
0.658236
0.65121
0.644075
0.636911
0.629778
0.622712
0.615729
0.608835
0.602024
0.595282
0.588589
0.581926
0.575274
0.568396
0.56026
0.55097
0.540532
0.528721
0.517518
0.5059
0.501874
0.501297
0.502565
0.503944
0.504796
0.504729
0.503666
0.501698
0.498651
0.49744
0.497012
0.497385
0.498495
0.500126
0.501828
0.503321
0.504536
0.505513
0.506303
0.506919
0.507311
0.507397
0.507105
0.506406
0.505312
0.503859
0.502098
0.500082
0.497862
0.495478
0.492966
0.49035
0.487647
0.484798
0.481795
0.478606
0.475183
0.471474
0.467523
0.463766
0.461297
0.459705
0.458436
0.457236
0.455973
0.454568
0.453018
0.451387
0.449769
0.448212
0.446737
0.445358
0.444086
0.442928
0.441877
0.440893
0.439905
0.438859
0.437717
0.436463
0.435098
0.433635
0.432088
0.430468
0.428785
0.42704
0.425231
0.423354
0.421435
0.419402
0.417243
0.414947
0.412498
0.40988
0.407069
0.404039
0.40076
0.397196
0.393302
0.389018
0.384249
0.378832
0.372498
0.36476
0.354729
0.340813
0.320546
0.291391
0.254464
0.220843
0.203957
0.200076
0.2
0.2
0.2
0.2
0.2
0.2
0.2
0.2
0.2
0.2
0.2
0.2
0.2
0.2
0.2
0.2
0.2
0.2
0.200001
0.200123
0.220615
0.317758
0.326415
0.332844
0.339311
0.346783
0.354549
0.362449
0.369969
0.376272
0.378359
0.686535
0.683935
0.680248
0.675593
0.670111
0.663964
0.6573
0.650196
0.642961
0.635507
0.627868
0.620542
0.613303
0.606141
0.599034
0.591952
0.584853
0.577691
0.57041
0.562944
0.553533
0.541848
0.52749
0.512495
0.495431
0.483159
0.468562
0.465736
0.466011
0.47045
0.47456
0.47759
0.478801
0.477794
0.472861
0.465723
0.462762
0.462644
0.464192
0.467508
0.472401
0.477456
0.481859
0.485524
0.488683
0.491562
0.494247
0.496656
0.498576
0.499824
0.500329
0.500121
0.499289
0.497939
0.496177
0.494091
0.491754
0.489221
0.486525
0.483684
0.480603
0.477253
0.473545
0.469336
0.4644
0.458656
0.452876
0.45032
0.449017
0.448428
0.447854
0.447081
0.44594
0.444404
0.442311
0.440379
0.438787
0.437333
0.436034
0.434919
0.434028
0.43338
0.432923
0.432468
0.431903
0.43115
0.43018
0.429007
0.427663
0.426179
0.424585
0.422898
0.421124
0.41926
0.417295
0.415245
0.413082
0.410744
0.408219
0.405495
0.402558
0.399385
0.395952
0.392232
0.388193
0.383804
0.379028
0.373777
0.367879
0.361004
0.352513
0.341228
0.325148
0.301572
0.269096
0.233665
0.209986
0.201756
0.200024
0.2
0.2
0.2
0.2
0.2
0.2
0.2
0.2
0.2
0.2
0.2
0.2
0.2
0.2
0.2
0.2
0.2
0.2
0.200015
0.201572
0.242962
0.317046
0.325716
0.33217
0.338654
0.346082
0.353808
0.361679
0.369181
0.375461
0.37745
0.680561
0.677799
0.673848
0.668832
0.662915
0.6563
0.649185
0.641705
0.634139
0.626472
0.618632
0.610674
0.602934
0.595481
0.588041
0.580532
0.572874
0.564965
0.55667
0.546702
0.533224
0.514668
0.493389
0.477173
0.458754
0.452898
0.44829
0.423023
0.41521
0.456938
0.459508
0.461676
0.462256
0.459972
0.451204
0.439501
0.435758
0.433741
0.434225
0.437248
0.444136
0.451784
0.458142
0.463262
0.467824
0.472392
0.477216
0.482162
0.486678
0.490211
0.492519
0.493627
0.4937
0.492939
0.49153
0.489631
0.48736
0.484801
0.482007
0.47899
0.47564
0.471895
0.467597
0.46247
0.45598
0.448045
0.440153
0.438161
0.437225
0.437742
0.437933
0.437747
0.436826
0.435022
0.430642
0.427844
0.425866
0.424313
0.422974
0.42192
0.421269
0.421173
0.421661
0.422137
0.422408
0.422304
0.421778
0.42088
0.419691
0.418287
0.416724
0.415039
0.413247
0.411338
0.409284
0.407061
0.404753
0.402196
0.399389
0.396332
0.393016
0.389426
0.385536
0.381309
0.376707
0.371708
0.366347
0.360565
0.354173
0.346746
0.337332
0.324287
0.305139
0.277501
0.243485
0.215647
0.203408
0.200748
0.20001
0.2
0.2
0.2
0.2
0.2
0.2
0.2
0.2
0.2
0.2
0.2
0.2
0.2
0.2
0.2
0.2
0.2
0.200015
0.200454
0.207512
0.268251
0.316557
0.325012
0.331404
0.33787
0.345256
0.352961
0.360831
0.368347
0.374633
0.37652
0.675105
0.672097
0.667748
0.662183
0.655601
0.648277
0.640494
0.632471
0.624443
0.616416
0.608307
0.600225
0.591876
0.583354
0.575396
0.567247
0.558724
0.549611
0.539595
0.524131
0.503824
0.476543
0.452479
0.443078
0.43624
0.311906
0.209539
0.204521
0.213376
0.23046
0.402514
0.449229
0.450115
0.44624
0.431117
0.424028
0.375426
0.260761
0.265841
0.383704
0.434079
0.439414
0.443459
0.446593
0.44975
0.453728
0.459083
0.465884
0.47311
0.479278
0.4837
0.486338
0.487442
0.487329
0.486289
0.484559
0.482319
0.479697
0.476766
0.47354
0.46993
0.465843
0.461057
0.455144
0.447124
0.43784
0.431313
0.415535
0.401628
0.428177
0.428905
0.429295
0.428447
0.424963
0.415119
0.409862
0.407784
0.405945
0.403752
0.402477
0.401811
0.402377
0.404995
0.407381
0.409296
0.410385
0.410577
0.410064
0.409064
0.407743
0.406213
0.404549
0.40278
0.400886
0.398786
0.396427
0.393799
0.391011
0.387938
0.384588
0.380955
0.377009
0.372695
0.367925
0.362578
0.356611
0.350364
0.343821
0.336781
0.328629
0.317617
0.301346
0.277354
0.246182
0.218416
0.204551
0.200641
0.200014
0.2
0.2
0.2
0.2
0.2
0.2
0.2
0.2
0.2
0.2
0.2
0.2
0.2
0.2
0.2
0.2
0.2
0.200001
0.200058
0.201354
0.218096
0.307427
0.316673
0.32434
0.330526
0.33692
0.344265
0.351971
0.359897
0.367456
0.373771
0.375566
0.67013
0.666781
0.661863
0.655485
0.647901
0.639523
0.630794
0.622022
0.613388
0.604884
0.59643
0.58805
0.579457
0.570195
0.560471
0.551302
0.541381
0.530192
0.514703
0.488067
0.462902
0.433538
0.424648
0.329969
0.211605
0.201527
0.200101
0.200038
0.200104
0.200282
0.205534
0.373332
0.432778
0.427765
0.408622
0.253691
0.20081
0.200282
0.200617
0.206846
0.390621
0.431331
0.433066
0.4337
0.434604
0.436717
0.441136
0.449086
0.459598
0.468669
0.475159
0.479187
0.481175
0.481571
0.480764
0.47907
0.476739
0.473953
0.470828
0.467375
0.463582
0.459334
0.454378
0.448069
0.438745
0.429257
0.342314
0.204161
0.203217
0.214678
0.359471
0.419026
0.419209
0.414437
0.402902
0.317409
0.206511
0.22273
0.201465
0.200666
0.209814
0.331767
0.395874
0.397602
0.399427
0.400529
0.400506
0.399693
0.398395
0.396811
0.395073
0.393276
0.391474
0.389627
0.387505
0.385014
0.382151
0.379071
0.375679
0.371983
0.36796
0.363541
0.358594
0.352868
0.345941
0.337591
0.329596
0.321623
0.313366
0.303707
0.288258
0.263705
0.234633
0.213254
0.203636
0.200715
0.200084
0.200001
0.2
0.2
0.2
0.2
0.2
0.2
0.2
0.2
0.2
0.2
0.2
0.2
0.2
0.2
0.2
0.2
0.2
0.2
0.200055
0.201004
0.215469
0.307252
0.316036
0.323328
0.329387
0.335716
0.34313
0.350857
0.358811
0.36644
0.372836
0.374586
0.665596
0.661802
0.65609
0.648502
0.639374
0.629392
0.61933
0.609558
0.60017
0.59109
0.582191
0.573364
0.564314
0.554677
0.543648
0.531453
0.518933
0.503523
0.469559
0.428858
0.411428
0.399295
0.22576
0.20252
0.20017
0.200015
0.200001
0.2
0.200001
0.200002
0.20006
0.219923
0.318342
0.403392
0.343675
0.212057
0.200127
0.200002
0.200003
0.200052
0.209998
0.404129
0.338637
0.293486
0.309181
0.37406
0.412406
0.445277
0.454554
0.462687
0.46912
0.473429
0.475679
0.476173
0.475275
0.473335
0.470664
0.467522
0.464121
0.460461
0.456615
0.452504
0.447901
0.441874
0.432321
0.287309
0.202442
0.200038
0.200017
0.200175
0.204768
0.379946
0.412622
0.40194
0.387945
0.2917
0.201435
0.200202
0.200012
0.200006
0.200049
0.200966
0.203036
0.316458
0.392524
0.393185
0.392185
0.390554
0.388611
0.386516
0.384377
0.382305
0.380426
0.378758
0.376616
0.373917
0.370737
0.367149
0.363265
0.358981
0.354243
0.348885
0.34262
0.334791
0.324027
0.309139
0.298243
0.287079
0.272595
0.253835
0.231601
0.214091
0.205065
0.201549
0.200395
0.200078
0.200009
0.2
0.2
0.2
0.2
0.2
0.2
0.2
0.2
0.2
0.2
0.2
0.2
0.2
0.2
0.2
0.2
0.2
0.2
0.2
0.200005
0.20006
0.201797
0.305862
0.314727
0.321888
0.32794
0.334361
0.341723
0.349469
0.3575
0.365263
0.371812
0.373583
0.661469
0.657134
0.650339
0.640905
0.629252
0.616656
0.604664
0.593572
0.583283
0.573558
0.564129
0.554733
0.54501
0.534543
0.522644
0.507268
0.487069
0.459876
0.39617
0.374603
0.250198
0.209115
0.200533
0.200031
0.200002
0.2
0.2
0.2
0.2
0.2
0.200001
0.200288
0.236614
0.386627
0.292476
0.204549
0.20005
0.2
0.2
0.2
0.305219
0.374084
0.244535
0.202688
0.20523
0.315426
0.385901
0.44223
0.451506
0.458986
0.464999
0.469081
0.471112
0.471263
0.46984
0.467202
0.463743
0.45975
0.456036
0.452255
0.448459
0.444628
0.440532
0.435319
0.426765
0.253254
0.201184
0.200013
0.2
0.200002
0.20012
0.355007
0.385791
0.313233
0.308833
0.253317
0.200716
0.200005
0.2
0.2
0.2
0.200003
0.200009
0.215857
0.377063
0.378704
0.377574
0.375596
0.37328
0.370836
0.368375
0.366093
0.364436
0.364123
0.362352
0.359347
0.355526
0.351062
0.346124
0.34063
0.334461
0.327155