/*--------------------------------*- C++ -*----------------------------------*\
| =========                 |                                                 |
| \\      /  F ield         | OpenFOAM: The Open Source CFD Toolbox           |
|  \\    /   O peration     | Version:  1.6                                   |
|   \\  /    A nd           | Web:      www.OpenFOAM.org                      |
|    \\/     M anipulation  |                                                 |
\*---------------------------------------------------------------------------*/
FoamFile
{
    version     2.0;
    format      ascii;
    class       volScalarField;
    location    "0.8";
    object      T;
}
// * * * * * * * * * * * * * * * * * * * * * * * * * * * * * * * * * * * * * //

dimensions      [0 0 0 0 0 0 0];

internalField   nonuniform List<scalar> 
400
(
4.99314
7.71169
8.62711
9.01616
9.21665
9.33382
9.40686
9.45288
9.48022
9.49301
9.49301
9.48022
9.45288
9.40685
9.33382
9.21665
9.01616
8.62711
7.71169
4.99314
2.24712
4.93822
6.40771
7.23702
7.7333
8.04559
8.24758
8.37734
8.4552
8.49182
8.49182
8.4552
8.37733
8.24757
8.04558
7.73329
7.23702
6.40771
4.93823
2.24712
1.30423
3.38638
4.82848
5.79092
6.43393
6.86767
7.16053
7.3537
7.47143
7.52727
7.52727
7.47143
7.35369
7.16053
6.86766
6.43393
5.79092
4.82848
3.38638
1.30423
0.887652
2.47459
3.72892
4.66427
5.34385
5.83062
6.17321
6.4055
6.54957
6.61856
6.61856
6.54957
6.40549
6.1732
5.83061
5.34384
4.66426
3.72892
2.47459
0.887653
0.659448
1.89539
2.94837
3.79337
4.44659
4.93777
5.29619
5.54553
5.70282
5.77886
5.77886
5.70281
5.54552
5.29617
4.93775
4.44658
3.79337
2.94837
1.89539
0.659448
0.5142
1.49917
2.37579
3.11428
3.71139
4.17768
4.52826
4.77762
4.93733
5.01522
5.01522
4.93732
4.77761
4.52825
4.17767
3.71138
3.11427
2.37579
1.49917
0.514199
0.41238
1.21131
1.94136
2.57658
3.10701
3.53333
3.86158
4.09939
4.25368
4.32951
4.32951
4.25368
4.09938
3.86157
3.53332
3.107
2.57657
1.94135
1.21131
0.412379
0.336386
0.992346
1.60175
2.14369
2.60677
2.98707
3.28537
3.5047
3.64852
3.71966
3.71966
3.64852
3.50469
3.28536
2.98705
2.60676
2.14368
1.60175
0.992344
0.336386
0.277206
0.819944
1.32962
1.78968
2.18931
2.52281
2.78816
2.98554
3.11607
3.18097
3.18097
3.11607
2.98553
2.78816
2.52281
2.1893
1.78967
1.32962
0.819944
0.277206
0.229702
0.680613
1.10712
1.4961
1.83801
2.12674
2.35896
2.53325
2.64929
2.70722
2.70722
2.64929
2.53325
2.35896
2.12673
1.83801
1.4961
1.10712
0.680614
0.229703
0.190695
0.565695
0.922156
1.24962
1.53991
1.7872
1.98771
2.13924
2.24065
2.29144
2.29144
2.24065
2.13924
1.98771
1.7872
1.53991
1.24962
0.922157
0.565696
0.190696
0.158081
0.469323
0.7662
1.04033
1.28484
1.49446
1.66547
1.79537
1.88266
1.92648
1.92649
1.88266
1.79538
1.66547
1.49447
1.28484
1.04034
0.766204
0.469326
0.158082
0.130388
0.387326
0.633
0.860686
1.06467
1.24037
1.38435
1.49416
1.56816
1.60538
1.60539
1.56816
1.49416
1.38436
1.24038
1.06467
0.860694
0.633006
0.38733
0.13039
0.106537
0.3166
0.517802
0.704761
0.872794
1.01803
1.13744
1.22877
1.29046
1.32154
1.32154
1.29047
1.22878
1.13745
1.01804
0.872803
0.704769
0.517808
0.316604
0.106539
0.0856976
0.254744
0.416857
0.567778
0.703734
0.821541
0.918634
0.993055
1.04341
1.0688
1.0688
1.04341
0.993064
0.918644
0.821551
0.703743
0.567786
0.416862
0.254747
0.0856985
0.0672094
0.199826
0.327114
0.445773
0.552843
0.645786
0.722522
0.781432
0.821338
0.841478
0.841479
0.821343
0.78144
0.722532
0.645795
0.552851
0.44578
0.327119
0.199828
0.06721
0.0505253
0.150242
0.24601
0.335369
0.416094
0.486257
0.544257
0.588833
0.619056
0.634318
0.634319
0.61906
0.588841
0.544266
0.486265
0.4161
0.335374
0.246013
0.150242
0.0505255
0.0351764
0.10461
0.171321
0.233607
0.289919
0.338905
0.379433
0.410604
0.431751
0.442434
0.442435
0.431754
0.41061
0.379439
0.338909
0.289922
0.233609
0.171321
0.104609
0.0351759
0.0207472
0.0617028
0.101062
0.137824
0.171077
0.200019
0.223977
0.242412
0.254923
0.261244
0.261245
0.254924
0.242415
0.22398
0.200021
0.171078
0.137824
0.101061
0.0617014
0.0207466
0.00685664
0.0203925
0.0334021
0.0455554
0.0565511
0.0661239
0.0740501
0.0801504
0.0842911
0.0863836
0.0863836
0.0842915
0.0801516
0.0740512
0.0661241
0.0565511
0.0455553
0.0334012
0.0203917
0.00685636
)
;

boundaryField
{
    left
    {
        type            fixedValue;
        value           uniform 0;
    }
    down
    {
        type            fixedValue;
        value           uniform 10;
    }
    up
    {
        type            fixedValue;
        value           uniform 0;
    }
    right
    {
        type            fixedValue;
        value           uniform 0;
    }
    frontAndBack
    {
        type            empty;
    }
}


// ************************************************************************* //
