/*--------------------------------*- C++ -*----------------------------------*\
| =========                 |                                                 |
| \\      /  F ield         | OpenFOAM: The Open Source CFD Toolbox           |
|  \\    /   O peration     | Version:  2.1.0                                 |
|   \\  /    A nd           | Web:      www.OpenFOAM.org                      |
|    \\/     M anipulation  |                                                 |
\*---------------------------------------------------------------------------*/
FoamFile
{
    version     2.0;
    format      ascii;
    class       surfaceScalarField;
    location    "12045";
    object      phi_o;
}
// * * * * * * * * * * * * * * * * * * * * * * * * * * * * * * * * * * * * * //

dimensions      [1 -2 -2 0 0 0 0];

internalField   nonuniform List<scalar> 
208750
(
0.615968
0.608427
-0.924102
1.04426
0.546082
-0.711316
1.28829
0.461512
-0.477518
1.40886
0.380841
-0.300249
1.46053
0.313374
-0.183494
1.47881
0.259907
-0.111031
1.48381
0.21825
-0.067107
1.48605
0.185757
-0.040589
1.49069
0.16014
-0.0243443
1.50003
0.139644
-0.0140594
1.51497
0.12298
-0.00720815
1.53576
0.109242
-0.00235703
1.56225
0.0977601
0.00128456
1.59445
0.088096
0.00442223
1.63243
0.0799752
0.00735898
1.6764
0.07325
0.010139
1.7267
0.0678766
0.0125301
1.78381
0.0638691
0.0139727
1.84872
0.0614088
0.0135213
1.92266
0.0608482
0.00944418
2.00623
0.0624697
-0.000836721
2.10237
0.0667637
-0.0187429
2.20979
0.0736194
-0.0481868
2.31842
0.0808622
-0.0913409
2.40988
0.084361
-0.138997
2.47039
0.0822698
-0.161747
2.49501
0.0764614
-0.131326
2.48549
0.0682415
-0.073778
2.45519
0.0597182
-0.0341528
2.41659
0.0526073
-0.0152481
2.37608
0.0471586
-0.00694515
2.33618
0.0430948
-0.00326545
2.29765
0.0401023
-0.0015832
2.26051
0.0379257
-0.000788295
2.22455
0.0363652
-0.000402891
2.18948
0.0352733
-0.000210072
2.15505
0.0345364
-0.000109595
2.12105
0.0340575
-5.76714e-05
2.08733
0.0337577
-3.07131e-05
2.05377
0.0335707
-1.59884e-05
2.02034
0.0334361
-8.35856e-06
1.98704
0.0333022
-4.88849e-06
1.95392
0.0331266
-2.72928e-06
1.92105
0.0328731
-1.09325e-06
1.88854
0.0325129
-9.22075e-07
1.85651
0.0320266
-8.33887e-07
1.82511
0.0314025
-4.60498e-07
1.79447
0.0306364
-2.11196e-07
1.76474
0.0297306
-1.15709e-07
1.73605
0.0286935
8.08177e-08
1.70851
0.0275394
2.748e-07
1.68222
0.0262865
-4.4136e-08
1.65726
0.0249566
-2.78002e-07
1.63369
0.0235736
8.29023e-08
1.61152
0.0221622
5.89001e-07
1.59078
0.0207476
9.14305e-07
1.57142
0.0193545
8.98457e-07
1.55341
0.0180058
3.52519e-07
1.53669
0.0167231
-2.72667e-07
1.52116
0.0155265
-2.51936e-07
1.50673
0.0144324
1.24939e-07
1.49328
0.0134531
1.12558e-07
1.48068
0.0125978
-1.67398e-07
1.46881
0.0118713
-3.34717e-07
1.45754
0.0112729
-4.39942e-07
1.44674
0.0107979
-4.1763e-07
1.43631
0.0104369
-2.03428e-07
1.42613
0.0101762
-6.14582e-08
1.41613
0.00999942
2.62571e-08
1.40624
0.00988875
2.87674e-07
1.39641
0.00982558
4.22356e-07
1.38662
0.00979242
1.24559e-07
1.37685
0.00977466
-1.80519e-07
1.36709
0.00976061
-8.54498e-08
1.35734
0.00974089
1.22089e-07
1.34764
0.00970868
1.36427e-07
1.33798
0.0096596
1.44755e-07
1.32839
0.00959033
3.10992e-07
1.31889
0.00949747
4.3974e-07
1.30951
0.00937732
3.63611e-07
1.30029
0.00922612
1.99498e-07
1.29125
0.00903983
9.33605e-08
1.28244
0.00881409
-7.28051e-09
1.27389
0.00854463
-2.12849e-07
1.26566
0.00822797
-4.5801e-07
1.2578
0.0078618
-5.48942e-07
1.25036
0.00744467
-4.4939e-07
1.24338
0.00697564
-3.64414e-07
1.23693
0.00645427
-4.28568e-07
1.23105
0.00588076
-4.66883e-07
1.2258
0.00525536
-2.63414e-07
1.22122
0.00457741
5.41877e-08
1.21738
0.00384482
1.53795e-07
1.21432
0.0030541
-2.28183e-08
1.21212
0.00220027
-1.80697e-07
1.21084
0.00127618
-1.0546e-07
1.21057
0.00027189
4.78522e-08
1.2114
-0.000825636
2.44108e-09
1.21343
-0.0020324
-2.55905e-07
1.2168
-0.00336746
-4.7477e-07
1.22165
-0.00485339
-4.4933e-07
1.22817
-0.00651668
-2.33978e-07
1.23656
-0.00838802
-5.64341e-08
1.24706
-0.0105022
-8.66903e-08
1.25996
-0.0128974
-2.86491e-07
1.27557
-0.0156145
-4.47791e-07
1.29427
-0.0186951
-3.85699e-07
1.31645
-0.022179
-1.20848e-07
1.34255
-0.0261001
1.37169e-07
1.37303
-0.0304787
2.06597e-07
1.40834
-0.0353121
1.1547e-07
1.4489
-0.0405612
4.16094e-08
1.49504
-0.0461347
9.53705e-08
1.54691
-0.0518732
2.09784e-07
1.60445
-0.0575384
2.4258e-07
1.66727
-0.0628172
1.33045e-07
1.73462
-0.0673575
-6.59284e-08
1.80548
-0.0708524
-2.68506e-07
1.87865
-0.0731791
-4.17908e-07
1.95322
-0.0745684
-4.78252e-07
2.02895
-0.0757273
-4.22193e-07
2.10676
-0.0778056
-2.63723e-07
2.18891
-0.0821507
-8.36471e-08
2.27883
-0.0899206
2.07447e-08
2.38045
-0.101623
2.55195e-08
2.49701
-0.116561
9.86802e-10
2.62915
-0.132136
2.86973e-08
2.77231
-0.143166
1.07351e-07
2.91425
-0.141939
1.54268e-07
3.03507
-0.120812
9.63273e-08
3.1144
-0.0793314
-5.29772e-08
3.14539
-0.0309902
-2.07767e-07
3.13239
0.0129965
-2.89204e-07
3.08321
0.0491832
-2.8183e-07
3.00607
0.0771346
-2.18666e-07
2.90745
0.0986184
-1.29396e-07
2.79076
0.11669
-1.82335e-08
2.65555
0.135215
1.10495e-07
2.49908
0.156466
2.21881e-07
2.31901
0.18007
2.59289e-07
2.11541
0.203604
1.85874e-07
1.89182
0.223587
1.71758e-08
1.65452
0.237304
-1.83029e-07
1.41048
0.244037
-3.36672e-07
1.16559
0.244897
-3.89349e-07
0.923696
0.241891
-3.34482e-07
0.686613
0.237084
-2.26519e-07
0.454459
0.232155
-2.22695e-07
0.226178
0.228282
-6.92917e-07
0.22618
-2.09984e-06
0.553622
1.02905
-0.711309
0.959691
0.944462
-0.56763
1.20762
0.820658
-0.395994
1.34139
0.694494
-0.257078
1.40706
0.583333
-0.161005
1.43715
0.491583
-0.099226
1.45132
0.417831
-0.0607963
1.46044
0.358903
-0.037091
1.47019
0.311582
-0.0222776
1.48336
0.273182
-0.0127151
1.50123
0.241637
-0.006221
1.52428
0.215441
-0.00155278
1.55258
0.193425
0.00204103
1.58633
0.174873
0.00522042
1.6257
0.159317
0.00823303
1.67103
0.146499
0.0110706
1.7227
0.136329
0.0134265
1.78135
0.128854
0.0146678
1.84816
0.124413
0.0136648
1.92428
0.123494
0.00837462
2.01053
0.126237
-0.00390309
2.10922
0.133284
-0.0248742
2.21704
0.14369
-0.0582922
2.32192
0.153517
-0.103871
2.40779
0.157595
-0.147165
2.46459
0.154407
-0.156692
2.48679
0.145003
-0.116293
2.47697
0.130784
-0.0633989
2.44808
0.115807
-0.0303583
2.41114
0.102903
-0.0141714
2.37202
0.092745
-0.00665798
2.33319
0.0850629
-0.00318261
2.29547
0.0793706
-0.00155612
2.25895
0.0752211
-0.000778803
2.22345
0.0722556
-0.000397493
2.18874
0.0701936
-0.000205754
2.15457
0.0688138
-0.000107639
2.12075
0.0679347
-5.6431e-05
2.08714
0.0674041
-2.95383e-05
2.05364
0.0670881
-1.57421e-05
2.02021
0.0668696
-8.8967e-06
1.98687
0.066647
-4.98711e-06
1.95367
0.0663321
-2.33368e-06
1.92069
0.0658527
-1.13395e-06
1.88805
0.0651523
-8.33073e-07
1.85589
0.0641915
-7.1187e-07
1.82434
0.062948
-3.35947e-07
1.79357
0.061413
-1.7295e-07
1.76371
0.0595915
-2.052e-07
1.7349
0.0575026
2.71166e-08
1.70726
0.055176
-4.66707e-08
1.68089
0.0526493
-3.78538e-07
1.65588
0.0499664
-2.64165e-07
1.63228
0.0471755
3.14444e-07
1.61011
0.0443276
9.13873e-07
1.58938
0.0414738
1.05745e-06
1.57007
0.0386636
5.29119e-07
1.55213
0.0359444
-1.8042e-07
1.53549
0.0333608
-2.67635e-07
1.52007
0.0309517
1.75107e-07
1.50575
0.0287501
3.50786e-07
1.49242
0.0267826
1.27901e-07
1.47996
0.0250677
-1.53158e-07
1.46821
0.0236143
-4.58229e-07
1.45706
0.0224222
-6.21828e-07
1.44638
0.0214818
-4.17989e-07
1.43604
0.0207732
-1.6061e-07
1.42595
0.0202683
-6.33354e-08
1.41602
0.0199331
1.60408e-07
1.40618
0.0197298
4.12409e-07
1.39638
0.0196201
2.48578e-07
1.3866
0.0195689
-1.24002e-07
1.37683
0.0195461
-1.66317e-07
1.36707
0.0195272
4.74593e-08
1.35731
0.0194942
1.71929e-07
1.34759
0.0194348
2.73361e-07
1.33791
0.0193406
5.01939e-07
1.32829
0.0192053
6.6977e-07
1.31877
0.0190224
5.84192e-07
1.30936
0.0187856
3.67949e-07
1.3001
0.0184873
2.1158e-07
1.29102
0.018119
9.59617e-08
1.28217
0.0176714
-9.71022e-08
1.27357
0.017136
-3.44506e-07
1.2653
0.0165057
-4.68446e-07
1.25738
0.0157754
-3.78224e-07
1.24989
0.014942
-2.43799e-07
1.24286
0.0140038
-2.861e-07
1.23636
0.0129608
-4.27388e-07
1.23043
0.011814
-3.74808e-07
1.22512
0.0105638
-8.16162e-08
1.22049
0.00920928
1.36823e-07
1.21658
0.0077471
5.66151e-08
1.21347
0.00617103
-1.26518e-07
1.2112
0.00447119
-1.03916e-07
1.20984
0.00263313
8.59281e-08
1.20948
0.000637049
1.27885e-07
1.21019
-0.00154242
-1.13561e-07
1.2121
-0.00393666
-4.16609e-07
1.21531
-0.00658363
-4.91998e-07
1.21999
-0.00952859
-3.06981e-07
1.2263
-0.0128247
-7.86449e-08
1.23445
-0.0165331
-3.05436e-08
1.24467
-0.0207236
-1.94998e-07
1.25724
-0.0254732
-4.03235e-07
1.27249
-0.0308651
-4.40044e-07
1.29079
-0.0369859
-2.43722e-07
1.31253
-0.0439203
2.52439e-08
1.33817
-0.0517425
1.41791e-07
1.3682
-0.060503
5.52254e-08
1.40309
-0.0702091
-6.14964e-08
1.44333
-0.0807981
-1.70085e-08
1.4893
-0.0921041
1.81122e-07
1.54124
-0.10382
3.44245e-07
1.59917
-0.115463
3.08421e-07
1.66272
-0.126373
7.98564e-08
1.73113
-0.135761
-2.09097e-07
1.80315
-0.142873
-4.30521e-07
1.87727
-0.147296
-5.25089e-07
1.95206
-0.149367
-4.84056e-07
2.02687
-0.150535
-3.31907e-07
2.10241
-0.153344
-1.38276e-07
2.18114
-0.160877
-8.00355e-10
2.26713
-0.175909
2.77469e-08
2.36551
-0.200011
-6.92489e-09
2.48144
-0.232483
-6.25823e-09
2.61812
-0.268818
7.25813e-08
2.77354
-0.298589
1.65443e-07
2.93538
-0.303777
1.65715e-07
3.07655
-0.261979
3.36922e-08
3.16274
-0.165523
-1.63334e-07
3.18937
-0.0576261
-3.13412e-07
3.16858
0.0337933
-3.52738e-07
3.11116
0.106602
-2.97799e-07
3.02756
0.160737
-2.00379e-07
2.92553
0.200649
-9.07794e-08
2.80929
0.232927
2.94613e-08
2.6768
0.267704
1.53071e-07
2.52269
0.310579
2.44049e-07
2.34255
0.36021
2.55883e-07
2.13539
0.410758
1.68872e-07
1.90554
0.453439
9.32778e-09
1.66125
0.481594
-1.62862e-07
1.41134
0.493947
-2.84324e-07
1.16258
0.493659
-3.15698e-07
0.918888
0.485585
-2.57995e-07
0.681683
0.47429
-1.67712e-07
0.450585
0.463254
-1.95872e-07
0.224076
0.454789
-6.72464e-07
0.450251
-2.02787e-06
0.469033
1.26518
-0.477449
0.835887
1.18445
-0.39594
1.08145
1.05822
-0.289686
1.23023
0.920855
-0.196523
1.31531
0.792594
-0.127682
1.3634
0.681435
-0.0810327
1.39239
0.588453
-0.0507571
1.41312
0.511735
-0.0313655
1.43179
0.448522
-0.0188151
1.45182
0.39617
-0.0104293
1.47503
0.352483
-0.00454615
1.50226
0.315732
-0.00022452
1.53403
0.284612
0.00329374
1.57077
0.258266
0.00651133
1.61289
0.236145
0.00958228
1.66086
0.217966
0.0124059
1.71522
0.203627
0.0145589
1.77691
0.193282
0.0152566
1.84724
0.187401
0.0130109
1.92702
0.186447
0.00532792
2.01758
0.190305
-0.0102055
2.11963
0.199588
-0.0358097
2.22686
0.211795
-0.0742696
2.326
0.221412
-0.120794
2.4046
0.223761
-0.15427
2.45518
0.218096
-0.144777
2.47257
0.20445
-0.0959626
2.46199
0.185362
-0.0508191
2.43517
0.165851
-0.0251332
2.40098
0.148876
-0.0122648
2.36434
0.135266
-0.00598369
2.3275
0.124816
-0.00294018
2.29132
0.117006
-0.00146334
2.25598
0.111297
-0.000739354
2.22139
0.107227
-0.000379063
2.18736
0.104425
-0.000196222
2.15369
0.102587
-0.000102462
2.12022
0.101462
-5.38071e-05
2.08682
0.100833
-2.854e-05
2.05342
0.100506
-1.53554e-05
2.01999
0.100309
-8.27612e-06
1.98655
0.100085
-4.45062e-06
1.95319
0.099703
-1.93399e-06
1.91999
0.099053
-1.24712e-06
1.88709
0.0980511
-1.27925e-06
1.85464
0.0966402
-4.20015e-07
1.82281
0.0947852
1.86059e-07
1.79175
0.092474
-1.58802e-07
1.76162
0.0897184
-2.62551e-07
1.73257
0.0865497
6.72408e-08
1.70473
0.0830137
-6.37019e-08
1.67821
0.0791688
-4.17458e-07
1.65309
0.0750841
-9.87402e-08
1.62943
0.070835
7.14209e-07
1.60726
0.0664996
1.08406e-06
1.58657
0.0621561
6.69228e-07
1.56735
0.0578812
-5.47288e-08
1.54955
0.0537481
-3.86612e-07
1.53308
0.0498242
-1.00639e-07
1.51787
0.0461692
3.30138e-07
1.50378
0.0428342
4.82268e-07
1.49071
0.0398602
3.36063e-07
1.4785
0.0372756
-1.0362e-07
1.46702
0.0350954
-5.89226e-07
1.45612
0.03332
-6.43912e-07
1.44567
0.0319339
-3.63464e-07
1.43554
0.0309057
-1.97048e-07
1.42562
0.0301909
-8.19791e-08
1.41582
0.0297348
1.48032e-07
1.40607
0.0294767
1.98313e-07
1.39633
0.029356
-4.20278e-08
1.38658
0.0293173
-1.89881e-07
1.37681
0.0293133
-7.89614e-08
1.36703
0.0293074
7.51161e-08
1.35725
0.0292737
2.21575e-07
1.34749
0.0291956
4.6002e-07
1.33777
0.0290626
6.53703e-07
1.32811
0.0288668
5.9474e-07
1.31853
0.0286005
3.61737e-07
1.30907
0.0282549
1.84448e-07
1.29973
0.0278183
1.20282e-07
1.29058
0.027277
4.77157e-08
1.28163
0.0266162
-1.17692e-07
1.27294
0.0258221
-2.86351e-07
1.26457
0.0248834
-2.86561e-07
1.25655
0.0237922
-1.19138e-07
1.24895
0.0225436
-2.4248e-08
1.24182
0.0211361
-1.57997e-07
1.23521
0.0195707
-3.21995e-07
1.22918
0.0178501
-2.34058e-07
1.22376
0.0159762
3.08819e-08
1.21903
0.0139485
1.417e-07
1.21501
0.0117632
1.15333e-08
1.21177
0.00941184
-9.20118e-08
1.20936
0.00688045
2.14886e-08
1.20784
0.00414792
1.80552e-07
1.2073
0.00118536
1.17922e-07
1.2078
-0.00204448
-1.54071e-07
1.20945
-0.00558801
-3.79017e-07
1.21237
-0.00950161
-3.78128e-07
1.21669
-0.0138526
-2.16607e-07
1.22259
-0.0187203
-8.9196e-08
1.23025
-0.0241965
-1.28124e-07
1.23992
-0.0303861
-3.05147e-07
1.25185
-0.0374067
-4.58177e-07
1.26637
-0.045387
-4.24885e-07
1.28385
-0.0544634
-2.03504e-07
1.30471
-0.0647739
2.38269e-08
1.32941
-0.0764466
7.41511e-08
1.35849
-0.0895814
-3.27309e-08
1.3925
-0.104222
-9.97579e-08
1.43202
-0.120318
1.2632e-08
1.47758
-0.137664
2.24166e-07
1.5296
-0.155838
3.28083e-07
1.58826
-0.174121
2.08988e-07
1.65334
-0.191451
-6.39775e-08
1.72402
-0.206439
-3.31249e-07
1.79873
-0.217584
-4.78358e-07
1.87519
-0.223763
-4.78292e-07
1.9509
-0.225069
-3.58732e-07
2.02406
-0.223701
-1.7769e-07
2.09488
-0.224158
-1.78143e-08
2.16611
-0.232103
5.03196e-08
2.24302
-0.252828
2.94831e-08
2.33304
-0.290028
3.07136e-09
2.4451
-0.344543
5.31127e-08
2.58835
-0.412062
1.67077e-07
2.76835
-0.478597
2.39506e-07
2.97718
-0.512601
1.72888e-07
3.173
-0.457802
-2.57842e-08
3.27063
-0.263157
-2.4871e-07
3.28079
-0.0677837
-3.79205e-07
3.24138
0.0732014
-3.79083e-07
3.16529
0.182694
-2.93075e-07
3.06747
0.258563
-1.82342e-07
2.9578
0.310315
-7.12207e-08
2.84407
0.346663
4.57358e-08
2.71968
0.392094
1.63064e-07
2.57232
0.457935
2.46041e-07
2.3931
0.539433
2.52741e-07
2.17807
0.62578
1.68411e-07
1.9337
0.697816
1.95232e-08
1.6736
0.741686
-1.39328e-07
1.41105
0.756498
-2.50774e-07
1.15451
0.750209
-2.71123e-07
0.907594
0.732498
-1.60751e-07
0.670647
0.711239
1.33575e-07
0.442121
0.691782
5.54643e-07
0.219538
0.677375
4.93586e-07
0.669789
-4.94017e-07
0.388303
1.37759
-0.300071
0.709656
1.30999
-0.256926
0.944092
1.19863
-0.196433
1.10197
1.0702
-0.139288
1.20415
0.94343
-0.0941509
1.27042
0.828005
-0.0617567
1.31567
0.727269
-0.0396165
1.3499
0.641131
-0.0247364
1.37944
0.56803
-0.0146456
1.40813
0.506021
-0.00758851
1.43828
0.453292
-0.00243552
1.47114
0.408208
0.00150919
1.50769
0.369638
0.00493432
1.54865
0.336775
0.00815426
1.59471
0.309123
0.0112185
1.64652
0.286443
0.0138835
1.70488
0.2687
0.0155695
1.77103
0.256235
0.0152112
1.84628
0.24957
0.010817
1.93088
0.248732
-0.000516545
2.02686
0.254311
-0.0203366
2.13184
0.265346
-0.0517012
2.23648
0.277364
-0.094705
2.32835
0.28426
-0.137892
2.39893
0.283056
-0.154494
2.44153
0.273141
-0.124592
2.45348
0.25451
-0.0744619
2.44248
0.23152
-0.0390635
2.4182
0.209029
-0.0199354
2.38737
0.189546
-0.0100991
2.35389
0.173792
-0.00509936
2.31969
0.16158
-0.00257841
2.28561
0.152393
-0.00131143
2.25191
0.145666
-0.000672896
2.21859
0.1409
-0.000348581
2.18552
0.137673
-0.000182577
2.15257
0.135636
-9.61473e-05
2.11959
0.134489
-5.03975e-05
2.0865
0.133958
-2.65616e-05
2.05322
0.133796
-1.41305e-05
2.01976
0.133773
-7.69074e-06
1.98617
0.133681
-3.9072e-06
1.95254
0.13334
-2.47347e-06
1.91899
0.132605
-1.82455e-06
1.88568
0.131362
-5.88431e-07
1.85279
0.129534
1.82601e-07
1.8205
0.127076
-1.23127e-07
1.78899
0.123978
-4.44149e-07
1.75845
0.12026
5.19776e-08
1.72903
0.115965
2.51793e-07
1.70088
0.11116
-3.32075e-07
1.67412
0.105928
-3.53843e-07
1.64884
0.100367
5.06139e-07
1.62509
0.0945814
1.04077e-06
1.60291
0.0886792
6.72764e-07
1.5823
0.0827693
-1.10713e-07
1.56322
0.0769572
-6.0406e-07
1.54562
0.0713431
-4.01865e-07
1.52943
0.0660191
2.3976e-07
1.51453
0.0610672
7.29787e-07
1.50081
0.0565578
7.83978e-07
1.48812
0.0525479
3.53316e-07
1.47632
0.0490783
-3.59856e-07
1.46525
0.0461715
-7.74523e-07
1.45474
0.0438288
-6.4248e-07
1.44464
0.0420282
-3.86278e-07
1.43482
0.0407252
-2.65496e-07
1.42516
0.0398554
-1.15884e-07
1.41556
0.0393384
1.05465e-08
1.40595
0.0390859
-8.03675e-08
1.39629
0.0390099
-2.19327e-07
1.38658
0.0390306
-1.69751e-07
1.37681
0.039082
-1.83618e-08
1.367
0.039115
1.35959e-07
1.35718
0.0390975
3.62538e-07
1.34736
0.0390113
5.83733e-07
1.33758
0.0388469
5.68834e-07
1.32785
0.0385981
3.10772e-07
1.31819
0.0382578
6.18602e-08
1.30863
0.0378151
2.4138e-09
1.29919
0.0372539
7.26204e-08
1.28992
0.0365542
9.17198e-08
1.28084
0.0356939
-2.58051e-08
1.27201
0.0346526
-1.43248e-07
1.26348
0.0334138
-6.4073e-08
1.2553
0.031966
1.39863e-07
1.24754
0.0303033
1.62293e-07
1.24025
0.0284253
-7.6705e-08
1.23349
0.0263354
-2.59947e-07
1.2273
0.0240395
-1.32743e-07
1.22174
0.0215422
1.14064e-07
1.21684
0.0188451
1.50247e-07
1.21266
0.0159451
-1.96451e-10
1.20924
0.0128328
-4.27945e-08
1.20663
0.009491
1.16128e-07
1.20488
0.00589276
2.51387e-07
1.20407
0.00200093
1.63159e-07
1.20425
-0.0022329
-7.39756e-08
1.20554
-0.00686929
-2.51066e-07
1.20802
-0.0119821
-2.71319e-07
1.21183
-0.01766
-2.00897e-07
1.21711
-0.0240074
-1.66245e-07
1.22407
-0.0311465
-2.49609e-07
1.2329
-0.0392179
-4.21793e-07
1.24387
-0.0483807
-5.37405e-07
1.2573
-0.0588126
-4.52135e-07
1.27354
-0.0707065
-1.906e-07
1.29303
-0.084265
4.50918e-08
1.31628
-0.0996882
8.46248e-08
1.34385
-0.117153
-2.06746e-08
1.37641
-0.136781
-6.98328e-08
1.41468
-0.158586
4.15266e-08
1.45941
-0.182395
2.04051e-07
1.51132
-0.207745
2.30742e-07
1.57093
-0.233735
6.08579e-08
1.63835
-0.258869
-1.97055e-07
1.71287
-0.280961
-3.87721e-07
1.79255
-0.29726
-4.31538e-07
1.87389
-0.305104
-3.41203e-07
1.95226
-0.303446
-1.76048e-07
2.02361
-0.295041
-1.03983e-08
2.08693
-0.287486
8.57772e-08
2.14538
-0.290551
8.64929e-08
2.20582
-0.31327
4.3101e-08
2.27853
-0.362731
4.9542e-08
2.37758
-0.4436
1.48434e-07
2.52181
-0.556291
2.7331e-07
2.73435
-0.691135
2.99301e-07
3.03198
-0.81023
1.59498e-07
3.36765
-0.793472
-8.97189e-08
3.46601
-0.361519
-3.16544e-07
3.42178
-0.0235525
-4.15476e-07
3.35088
0.144102
-3.79325e-07
3.24116
0.29241
-2.7617e-07
3.11922
0.380505
-1.66847e-07
2.99415
0.435386
-6.39975e-08
2.8895
0.451316
4.64242e-08
2.78552
0.496076
1.59929e-07
2.65382
0.589633
2.41026e-07
2.47944
0.713807
2.49185e-07
2.25011
0.855113
1.7115e-07
1.97756
0.97036
3.06864e-08
1.68842
1.03083
-1.24491e-07
1.40476
1.04015
-2.47815e-07
1.1368
1.01818
-3.20067e-07
0.886335
0.98296
-3.54227e-07
0.65119
0.946385
-3.05735e-07
0.427714
0.915257
2.1947e-08
0.211952
0.893139
2.22261e-07
0.881741
-8.77753e-08
0.320708
1.42089
-0.183191
0.598297
1.36718
-0.160741
0.81566
1.27501
-0.127489
0.975201
1.16336
-0.0940511
1.08873
1.04758
-0.0659768
1.16968
0.937148
-0.0446093
1.22953
0.836691
-0.0291536
1.2768
0.747633
-0.0181738
1.31743
0.6697
-0.0103064
1.3554
0.601893
-0.00450957
1.3932
0.542971
-0.000117439
1.43257
0.491789
0.00352554
1.47482
0.447491
0.00686765
1.521
0.409483
0.0100586
1.57203
0.377435
0.0129996
1.62878
0.351209
0.0152668
1.69241
0.331004
0.0160626
1.76436
0.317352
0.0138629
1.84544
0.31065
0.00613496
1.93646
0.310722
-0.00963923
2.03789
0.318032
-0.0352668
2.14386
0.329355
-0.0729143
2.24338
0.338434
-0.117571
2.32715
0.340459
-0.149852
2.38902
0.334149
-0.142828
2.4229
0.318349
-0.0982554
2.43049
0.294934
-0.0550129
2.41999
0.269232
-0.0292102
2.39872
0.245157
-0.0153653
2.37162
0.224551
-0.0080297
2.34168
0.207883
-0.00417527
2.3105
0.194914
-0.00216754
2.27888
0.185135
-0.00112696
2.24715
0.177993
-0.00058881
2.21536
0.172992
-0.000310265
2.18349
0.169711
-0.00016431
2.15142
0.167789
-8.63049e-05
2.11906
0.166894
-4.54281e-05
2.08633
0.166713
-2.42855e-05
2.0532
0.166945
-1.31565e-05
2.01967
0.167304
-7.1929e-06
1.98583
0.167523
-4.25686e-06
1.9518
0.167373
-2.37568e-06
1.91774
0.166666
-9.29717e-07
1.88385
0.165258
-2.90888e-07
1.85033
0.163055
-2.55673e-07
1.8174
0.160005
-4.03697e-07
1.78527
0.156103
6.25896e-08
1.75415
0.151378
5.10714e-07
1.72423
0.145891
-2.13813e-08
1.69565
0.139733
-3.95832e-07
1.66856
0.133018
2.07548e-07
1.64305
0.125875
7.87797e-07
1.61919
0.118444
5.6354e-07
1.597
0.110866
-1.99113e-07
1.57649
0.103285
-8.26089e-07
1.55761
0.0958357
-7.07615e-07
1.5403
0.088649
6.59375e-08
1.52448
0.0818425
7.60268e-07
1.51002
0.0755225
9.45796e-07
1.4968
0.0697813
6.41607e-07
1.48465
0.0646946
-3.1001e-08
1.47342
0.0603182
-6.55814e-07
1.4629
0.0566843
-7.85435e-07
1.45294
0.053796
-5.75449e-07
1.44334
0.0516254
-4.01885e-07
1.43395
0.0501124
-2.56227e-07
1.42464
0.0491673
-1.07912e-07
1.4153
0.0486773
-1.49333e-07
1.40587
0.048518
-3.23316e-07
1.39631
0.0485666
-3.28817e-07
1.38663
0.0487129
-1.46668e-07
1.37684
0.0488687
4.16376e-08
1.36698
0.0489727
2.45502e-07
1.35709
0.0489898
4.96117e-07
1.3472
0.0489051
5.97168e-07
1.33733
0.0487154
3.96815e-07
1.32751
0.0484209
5.86269e-08
1.31775
0.0480177
-1.2653e-07
1.30807
0.0474939
-4.69017e-08
1.29849
0.0468281
1.47581e-07
1.28906
0.0459915
2.001e-07
1.2798
0.0449523
4.921e-08
1.27077
0.0436806
-5.44724e-08
1.26203
0.0421531
9.60363e-08
1.25364
0.0403542
2.92761e-07
1.24567
0.0382777
1.88831e-07
1.23816
0.0359255
-1.36151e-07
1.23119
0.0333061
-2.54063e-07
1.2248
0.0304303
-2.81516e-08
1.21904
0.0273079
1.99899e-07
1.21394
0.0239443
1.4704e-07
1.20954
0.0203393
-1.97415e-08
1.20589
0.0164837
6.552e-09
1.20303
0.0123582
2.17453e-07
1.20099
0.00793128
3.48602e-07
1.19983
0.00315837
2.54325e-07
1.19962
-0.00201897
3.51656e-08
1.20042
-0.00767429
-1.44663e-07
1.20234
-0.0138977
-2.20304e-07
1.20548
-0.0207977
-2.28996e-07
1.20998
-0.0285029
-2.57084e-07
1.21599
-0.0371646
-3.7695e-07
1.22373
-0.0469583
-5.54836e-07
1.23344
-0.0580857
-6.28113e-07
1.2454
-0.0707758
-4.57228e-07
1.25998
-0.0852846
-1.14659e-07
1.27761
-0.101891
1.51056e-07
1.29881
-0.120888
1.75036e-07
1.32422
-0.142562
4.69418e-08
1.3546
-0.167164
-1.87592e-08
1.39087
-0.194848
5.94582e-08
1.43406
-0.225586
1.58857e-07
1.48533
-0.259014
1.2188e-07
1.5458
-0.294203
-6.37983e-08
1.61626
-0.329329
-2.69249e-07
1.69657
-0.361278
-3.62711e-07
1.7847
-0.38539
-3.09259e-07
1.87554
-0.395945
-1.59514e-07
1.96067
-0.388571
8.17272e-09
2.03116
-0.365532
1.23964e-07
2.08387
-0.340192
1.48503e-07
2.12266
-0.329346
1.01147e-07
2.15636
-0.346971
6.19557e-08
2.19766
-0.404025
1.10626e-07
2.26489
-0.510833
2.4209e-07
2.38697
-0.678369
3.51035e-07
2.61525
-0.91942
3.18507e-07
3.04873
-1.24371
1.2205e-07
3.7996
-1.57584
-1.42711e-07
3.80398
-0.511487
-3.50312e-07
3.58943
0.201372
-4.10516e-07
3.49919
0.244865
-3.49947e-07
3.32926
0.470798
-2.47665e-07
3.1741
0.541014
-1.5216e-07
3.01008
0.59941
-6.19821e-08
2.93426
0.527139
4.35839e-08
2.87907
0.55126
1.56043e-07
2.77799
0.690715
2.36791e-07
2.62075
0.87105
2.46191e-07
2.36536
1.11051
1.73702e-07
2.03804
1.29767
4.1553e-08
1.69773
1.37115
-1.05874e-07
1.3828
1.35508
-2.18142e-07
1.10158
1.2994
-2.56799e-07
0.84976
1.23478
-2.40277e-07
0.620062
1.17609
-2.38038e-07
0.405595
1.12972
-8.43011e-08
0.200554
1.09818
3.95512e-08
1.0823
-2.18379e-08
0.266997
1.43075
-0.11062
0.506123
1.38867
-0.0988611
0.704018
1.31414
-0.0807447
0.859414
1.22018
-0.0615613
0.9783
1.11847
-0.0445112
1.06923
1.01734
-0.030747
1.14047
0.921724
-0.0201782
1.19887
0.833984
-0.0121989
1.24962
0.754879
-0.00612668
1.29648
0.684281
-0.00141648
1.34201
0.621581
0.0023762
1.38827
0.566253
0.00579157
1.43681
0.517834
0.00904153
1.48895
0.476036
0.0121149
1.5458
0.440738
0.0147128
1.60857
0.412056
0.0162028
1.67876
0.390505
0.0153946
1.75766
0.376671
0.0101474
1.84552
0.370336
-0.00238127
1.94377
0.372199
-0.0236602
2.04922
0.380318
-0.0562136
2.15293
0.388975
-0.0986613
2.2454
0.392197
-0.138126
2.32084
0.387846
-0.14941
2.37322
0.374755
-0.11796
2.39949
0.352562
-0.0714722
2.40479
0.325619
-0.0393918
2.39591
0.298628
-0.0214314
2.37811
0.274328
-0.0115875
2.35495
0.253871
-0.00621628
2.32871
0.237427
-0.00331441
2.30072
0.224659
-0.00176117
2.27174
0.21505
-0.000934893
2.24215
0.208087
-0.000497802
2.21208
0.20332
-0.000265939
2.18156
0.200373
-0.000141616
2.15053
0.198903
-7.51904e-05
2.11888
0.198577
-4.03332e-05
2.08657
0.199051
-2.20706e-05
2.05355
0.199967
-1.21824e-05
2.01989
0.200973
-6.55879e-06
1.98568
0.201736
-3.32851e-06
1.95109
0.201964
-1.56128e-06
1.91634
0.201426
-8.11166e-07
1.88165
0.199948
-5.51039e-07
1.84728
0.19742
-5.35501e-07
1.8135
0.193789
-8.53042e-08
1.78055
0.189054
6.40416e-07
1.74867
0.183258
4.50048e-07
1.71807
0.176487
-1.86551e-07
1.68894
0.168864
-1.29377e-07
1.66142
0.160536
3.04628e-07
1.63562
0.151673
3.49401e-07
1.61161
0.142453
-1.79507e-07
1.58942
0.133058
-8.82953e-07
1.56904
0.123668
-9.85003e-07
1.55042
0.114453
-2.72275e-07
1.53349
0.105575
5.19866e-07
1.51816
0.0971791
8.05764e-07
1.50428
0.0893986
6.6385e-07
1.49171
0.0823499
2.24702e-07
1.48028
0.0761308
-3.43141e-07
1.46978
0.0708162
-6.47367e-07
1.46002
0.0664516
-6.06188e-07
1.45077
0.0630457
-4.99984e-07
1.44183
0.0605655
-3.67849e-07
1.43301
0.0589322
-1.51748e-07
1.42415
0.0580238
-1.16853e-07
1.41515
0.0576846
-3.80371e-07
1.40592
0.057742
-5.59048e-07
1.39646
0.0580256
-3.99677e-07
1.38678
0.0583854
-1.26021e-07
1.37694
0.0587069
8.93433e-08
1.367
0.0589175
3.43292e-07
1.357
0.0589843
5.96666e-07
1.34701
0.0589042
6.03689e-07
1.33703
0.058689
3.01647e-07
1.3271
0.0583524
-5.51345e-08
1.31722
0.0578983
-1.63715e-07
1.3074
0.0573149
2.92966e-08
1.29766
0.0565731
2.59254e-07
1.28802
0.0556313
2.26075e-07
1.27852
0.0544428
7.23048e-10
1.26924
0.0529648
-4.74911e-08
1.26023
0.0511638
1.73787e-07
1.25156
0.0490198
2.89047e-07
1.24331
0.0465269
3.98068e-08
1.23555
0.0436927
-2.68391e-07
1.22832
0.0405332
-2.11842e-07
1.22168
0.0370678
1.12864e-07
1.21568
0.0333142
2.61435e-07
1.21033
0.0292848
1.08094e-07
1.20569
0.024984
-2.99206e-08
1.20177
0.0204049
9.41882e-08
1.1986
0.0155271
3.38332e-07
1.19622
0.0103157
4.27561e-07
1.19465
0.00471992
2.95251e-07
1.19396
-0.00132734
7.18419e-08
1.1942
-0.00791128
-1.12736e-07
1.19544
-0.0151367
-2.15715e-07
1.19777
-0.0231301
-2.64314e-07
1.20131
-0.0320422
-3.35338e-07
1.2062
-0.042051
-4.89287e-07
1.21261
-0.053365
-6.5719e-07
1.22075
-0.0662273
-6.4999e-07
1.23089
-0.0809195
-3.64362e-07
1.24338
-0.0977645
4.80259e-08
1.25861
-0.117127
3.01785e-07
1.27714
-0.139411
2.73771e-07
1.29962
-0.165045
1.12491e-07
1.32692
-0.194463
3.69491e-08
1.36013
-0.228056
8.99281e-08
1.40063
-0.266087
1.33358e-07
1.45014
-0.308522
4.6467e-08
1.51067
-0.354735
-1.34227e-07
1.58431
-0.402966
-2.71382e-07
1.67246
-0.449431
-2.71542e-07
1.77415
-0.487078
-1.49892e-07
1.88292
-0.504716
1.40344e-08
1.98371
-0.489361
1.42509e-07
2.0565
-0.438325
1.89603e-07
2.09471
-0.378405
1.52902e-07
2.10504
-0.33967
8.4111e-08
2.09931
-0.341242
6.84968e-08
2.09085
-0.395565
1.55591e-07
2.09736
-0.517341
2.97508e-07
2.14592
-0.72693
3.72306e-07
2.29097
-1.06447
2.88695e-07
2.7166
-1.62143
7.33053e-08
4.86395
-2.64052
-1.57119e-07
4.51683
-2.37662
-3.4499e-07
3.63293
-0.19169
-3.58967e-07
3.72512
1.7965
-2.88391e-07
3.39947
1.96094
-2.03303e-07
3.2325
1.36163
-1.26966e-07
2.93781
0.97251
-4.91409e-08
2.95838
0.55369
5.49117e-08
3.01853
0.531484
1.63965e-07
2.95833
0.777726
2.37802e-07
2.8602
0.995213
2.4045e-07
2.55252
1.41819
1.68999e-07
2.11151
1.73869
4.30437e-08
1.68167
1.80099
-9.9446e-08
1.32711
1.70964
-2.20826e-07
1.03695
1.58956
-2.7948e-07
0.791068
1.48067
-2.51827e-07
0.5737
1.39345
-2.15196e-07
0.374051
1.32937
-1.05013e-07
0.184669
1.28756
-2.63508e-08
1.26696
-1.67029e-08
0.224918
1.42746
-0.0666208
0.431596
1.39429
-0.0603557
0.610055
1.33408
-0.0503885
0.757706
1.25565
-0.0393329
0.877173
1.16763
-0.0289606
0.973609
1.07686
-0.0200798
1.05273
0.988007
-0.0128221
1.11977
0.903864
-0.00698402
1.17903
0.825862
-0.00227649
1.23378
0.754473
0.00156797
1.28669
0.689862
0.00499455
1.33985
0.632014
0.00824532
1.39502
0.580906
0.0113566
1.45365
0.53658
0.0141175
1.51712
0.499206
0.016004
1.58702
0.469318
0.0160532
1.66493
0.447608
0.0124604
1.75133
0.434184
0.00250189
1.84738
0.429388
-0.0156968
1.95189
0.43241
-0.0441269
2.05787
0.438225
-0.0832923
2.15616
0.440314
-0.124867
2.24105
0.435711
-0.147735
2.30775
0.423594
-0.13067
2.35103
0.402558
-0.0862709
2.37255
0.375306
-0.0494325
2.3778
0.346668
-0.027733
2.37161
0.319937
-0.0154947
2.35765
0.296775
-0.00858061
2.33851
0.277703
-0.00470571
2.31594
0.262559
-0.00256305
2.29111
0.250877
-0.00139029
2.26478
0.242138
-0.000752632
2.23738
0.235891
-0.000407731
2.20913
0.231786
-0.000220635
2.18009
0.229535
-0.00011889
2.1502
0.228861
-6.42655e-05
2.11936
0.229454
-3.51783e-05
2.08748
0.230942
-1.94846e-05
2.05456
0.2329
-1.0302e-05
2.02065
0.234887
-5.24168e-06
1.98591
0.236481
-2.561e-06
1.95056
0.237322
-1.19412e-06
1.91486
0.237124
-9.28929e-07
1.87912
0.235687
-1.06929e-06
1.84365
0.232889
-6.28407e-07
1.80876
0.228678
3.75502e-07
1.77475
0.223064
7.21867e-07
1.7419
0.216111
1.65669e-07
1.71045
0.207936
-2.70863e-07
1.68061
0.198698
-1.45164e-07
1.65256
0.18859
1.05472e-07
1.6264
0.177828
-8.5407e-08
1.60222
0.166637
-7.38261e-07
1.58003
0.155246
-1.11173e-06
1.55982
0.143876
-6.80641e-07
1.54154
0.132736
7.08187e-08
1.5251
0.122018
4.83628e-07
1.51038
0.1119
5.33301e-07
1.49723
0.102543
3.50756e-07
1.48549
0.0940887
-3.74521e-08
1.47496
0.0866625
-3.72945e-07
1.46542
0.0803641
-4.71293e-07
1.45661
0.0752594
-5.1769e-07
1.44829
0.0713694
-5.31304e-07
1.44019
0.0686586
-3.11592e-07
1.4321
0.0670269
-9.72896e-08
1.42381
0.0663103
-3.03617e-07
1.4152
0.0662948
-6.87768e-07
1.4062
0.06674
-7.06596e-07
1.39682
0.0674086
-3.97865e-07
1.38711
0.0680965
-1.253e-07
1.37715
0.0686562
1.07097e-07
1.36707
0.0690066
4.49816e-07
1.35692
0.0691268
7.29666e-07
1.34679
0.0690387
6.53726e-07
1.3367
0.068784
2.56689e-07
1.32665
0.0684013
-1.05067e-07
1.31664
0.0679087
-1.24668e-07
1.30666
0.0672946
1.31774e-07
1.29672
0.0665181
2.8418e-07
1.28683
0.0655174
1.16623e-07
1.27705
0.0642234
-1.04411e-07
1.26744
0.0625727
-2.58224e-08
1.25808
0.0605179
2.11529e-07
1.24907
0.0580337
1.6898e-07
1.24048