/*--------------------------------*- C++ -*----------------------------------*\
| =========                 |                                                 |
| \\      /  F ield         | OpenFOAM: The Open Source CFD Toolbox           |
|  \\    /   O peration     | Version:  2.1.0                                 |
|   \\  /    A nd           | Web:      www.OpenFOAM.org                      |
|    \\/     M anipulation  |                                                 |
\*---------------------------------------------------------------------------*/
FoamFile
{
    version     2.0;
    format      ascii;
    class       volScalarField;
    location    "12045";
    object      po;
}
// * * * * * * * * * * * * * * * * * * * * * * * * * * * * * * * * * * * * * //

dimensions      [1 -1 -2 0 0 0 0];

internalField   nonuniform List<scalar> 
75000
(
4390.86
4390.25
4389.2
4387.92
4386.51
4385.05
4383.57
4382.08
4380.6
4379.11
4377.61
4376.09
4374.56
4372.99
4371.4
4369.77
4368.09
4366.36
4364.58
4362.73
4360.81
4358.8
4356.7
4354.49
4352.17
4349.76
4347.29
4344.8
4342.31
4339.86
4337.44
4335.06
4332.73
4330.43
4328.17
4325.95
4323.76
4321.6
4319.48
4317.39
4315.34
4313.32
4311.33
4309.38
4307.46
4305.57
4303.71
4301.89
4300.09
4298.33
4296.59
4294.88
4293.2
4291.54
4289.91
4288.3
4286.71
4285.14
4283.58
4282.05
4280.52
4279.02
4277.52
4276.04
4274.57
4273.12
4271.67
4270.23
4268.81
4267.39
4265.99
4264.59
4263.2
4261.83
4260.46
4259.1
4257.75
4256.42
4255.09
4253.77
4252.46
4251.16
4249.87
4248.58
4247.31
4246.05
4244.79
4243.54
4242.29
4241.06
4239.83
4238.6
4237.38
4236.16
4234.95
4233.73
4232.52
4231.31
4230.1
4228.89
4227.67
4226.45
4225.22
4223.99
4222.74
4221.48
4220.2
4218.91
4217.59
4216.25
4214.88
4213.47
4212.02
4210.52
4208.98
4207.37
4205.71
4203.97
4202.17
4200.29
4198.33
4196.3
4194.2
4192.01
4189.73
4187.35
4184.85
4182.22
4179.45
4176.54
4173.5
4170.39
4167.24
4164.11
4161.03
4158.02
4155.11
4152.32
4149.67
4147.17
4144.85
4142.73
4140.84
4139.19
4137.78
4136.61
4135.69
4135
4134.55
4134.32
4390.26
4389.7
4388.74
4387.54
4386.19
4384.79
4383.35
4381.9
4380.44
4378.97
4377.48
4375.98
4374.46
4372.91
4371.32
4369.69
4368.02
4366.3
4364.52
4362.67
4360.75
4358.74
4356.63
4354.41
4352.09
4349.68
4347.22
4344.73
4342.25
4339.8
4337.39
4335.02
4332.69
4330.39
4328.13
4325.91
4323.72
4321.57
4319.45
4317.36
4315.3
4313.28
4311.3
4309.34
4307.42
4305.54
4303.68
4301.86
4300.06
4298.3
4296.56
4294.86
4293.17
4291.52
4289.89
4288.28
4286.69
4285.12
4283.57
4282.03
4280.51
4279
4277.51
4276.03
4274.56
4273.11
4271.66
4270.22
4268.8
4267.38
4265.98
4264.58
4263.19
4261.82
4260.45
4259.09
4257.74
4256.41
4255.08
4253.76
4252.45
4251.15
4249.86
4248.58
4247.3
4246.04
4244.78
4243.53
4242.29
4241.05
4239.82
4238.6
4237.37
4236.16
4234.94
4233.73
4232.52
4231.31
4230.1
4228.89
4227.68
4226.46
4225.23
4224
4222.75
4221.49
4220.22
4218.93
4217.62
4216.28
4214.91
4213.51
4212.07
4210.58
4209.03
4207.44
4205.77
4204.04
4202.24
4200.36
4198.41
4196.38
4194.28
4192.1
4189.83
4187.47
4184.98
4182.37
4179.59
4176.66
4173.58
4170.42
4167.23
4164.06
4160.95
4157.92
4155
4152.19
4149.51
4146.99
4144.64
4142.51
4140.6
4138.94
4137.53
4136.37
4135.45
4134.77
4134.32
4134.09
4389.23
4388.76
4387.92
4386.84
4385.61
4384.3
4382.93
4381.54
4380.13
4378.69
4377.24
4375.77
4374.27
4372.73
4371.16
4369.55
4367.89
4366.17
4364.39
4362.55
4360.62
4358.6
4356.48
4354.26
4351.93
4349.53
4347.07
4344.6
4342.14
4339.7
4337.3
4334.94
4332.61
4330.32
4328.06
4325.84
4323.65
4321.5
4319.38
4317.29
4315.24
4313.22
4311.23
4309.28
4307.36
4305.47
4303.62
4301.79
4300
4298.24
4296.51
4294.8
4293.12
4291.47
4289.84
4288.24
4286.65
4285.08
4283.53
4282
4280.48
4278.98
4277.49
4276.01
4274.54
4273.08
4271.64
4270.2
4268.78
4267.36
4265.96
4264.56
4263.17
4261.8
4260.43
4259.07
4257.72
4256.39
4255.06
4253.74
4252.43
4251.13
4249.84
4248.56
4247.29
4246.02
4244.76
4243.52
4242.27
4241.04
4239.81
4238.59
4237.37
4236.15
4234.94
4233.73
4232.52
4231.32
4230.11
4228.9
4227.69
4226.47
4225.25
4224.02
4222.78
4221.52
4220.26
4218.97
4217.67
4216.34
4214.98
4213.59
4212.16
4210.68
4209.15
4207.56
4205.91
4204.18
4202.39
4200.51
4198.56
4196.54
4194.44
4192.27
4190.03
4187.7
4185.25
4182.67
4179.9
4176.92
4173.75
4170.48
4167.2
4163.95
4160.79
4157.72
4154.76
4151.92
4149.2
4146.63
4144.23
4142.06
4140.12
4138.45
4137.04
4135.88
4134.98
4134.31
4133.86
4133.64
4387.96
4387.57
4386.86
4385.92
4384.82
4383.61
4382.34
4381.03
4379.68
4378.3
4376.89
4375.45
4373.98
4372.47
4370.92
4369.33
4367.68
4365.98
4364.21
4362.36
4360.43
4358.4
4356.27
4354.04
4351.71
4349.31
4346.87
4344.41
4341.97
4339.55
4337.16
4334.81
4332.49
4330.21
4327.95
4325.74
4323.55
4321.4
4319.28
4317.19
4315.14
4313.12
4311.13
4309.18
4307.26
4305.37
4303.52
4301.7
4299.91
4298.15
4296.42
4294.72
4293.05
4291.4
4289.78
4288.17
4286.59
4285.03
4283.48
4281.95
4280.44
4278.94
4277.45
4275.97
4274.51
4273.05
4271.61
4270.17
4268.75
4267.33
4265.93
4264.53
4263.14
4261.77
4260.4
4259.04
4257.7
4256.36
4255.03
4253.71
4252.4
4251.1
4249.81
4248.53
4247.26
4246
4244.74
4243.49
4242.25
4241.02
4239.79
4238.57
4237.36
4236.14
4234.93
4233.73
4232.52
4231.32
4230.11
4228.91
4227.7
4226.49
4225.27
4224.05
4222.81
4221.57
4220.31
4219.04
4217.75
4216.43
4215.09
4213.71
4212.3
4210.84
4209.32
4207.75
4206.12
4204.4
4202.61
4200.74
4198.78
4196.76
4194.67
4192.53
4190.32
4188.04
4185.67
4183.14
4180.41
4177.38
4174.01
4170.54
4167.12
4163.77
4160.53
4157.41
4154.42
4151.53
4148.74
4146.09
4143.61
4141.36
4139.38
4137.69
4136.29
4135.15
4134.26
4133.61
4133.19
4132.97
4386.58
4386.26
4385.67
4384.85
4383.87
4382.79
4381.62
4380.39
4379.11
4377.79
4376.44
4375.04
4373.61
4372.14
4370.62
4369.04
4367.41
4365.72
4363.96
4362.11
4360.18
4358.14
4355.99
4353.75
4351.42
4349.03
4346.61
4344.18
4341.76
4339.36
4336.99
4334.65
4332.34
4330.06
4327.81
4325.6
4323.41
4321.26
4319.14
4317.06
4315
4312.98
4311
4309.05
4307.13
4305.25
4303.39
4301.58
4299.79
4298.04
4296.31
4294.62
4292.95
4291.31
4289.69
4288.09
4286.51
4284.96
4283.42
4281.89
4280.38
4278.88
4277.4
4275.93
4274.46
4273.01
4271.57
4270.13
4268.71
4267.29
4265.89
4264.49
4263.1
4261.73
4260.36
4259
4257.66
4256.32
4254.99
4253.67
4252.37
4251.07
4249.78
4248.5
4247.23
4245.97
4244.71
4243.47
4242.23
4241
4239.77
4238.55
4237.34
4236.13
4234.92
4233.72
4232.52
4231.32
4230.12
4228.92
4227.72
4226.51
4225.3
4224.09
4222.86
4221.63
4220.38
4219.12
4217.85
4216.55
4215.22
4213.87
4212.48
4211.04
4209.56
4208.01
4206.4
4204.7
4202.91
4201.04
4199.08
4197.05
4194.96
4192.84
4190.68
4188.49
4186.22
4183.83
4181.22
4178.17
4174.37
4170.57
4166.98
4163.48
4160.15
4156.98
4153.97
4151.03
4148.15
4145.37
4142.75
4140.39
4138.35
4136.65
4135.27
4134.17
4133.32
4132.7
4132.29
4132.09
4385.16
4384.9
4384.39
4383.69
4382.83
4381.85
4380.78
4379.64
4378.44
4377.19
4375.89
4374.55
4373.16
4371.73
4370.24
4368.69
4367.08
4365.41
4363.65
4361.8
4359.86
4357.81
4355.66
4353.41
4351.09
4348.72
4346.32
4343.91
4341.52
4339.14
4336.78
4334.45
4332.15
4329.88
4327.64
4325.43
4323.25
4321.1
4318.98
4316.89
4314.84
4312.82
4310.83
4308.88
4306.96
4305.08
4303.23
4301.42
4299.64
4297.89
4296.17
4294.49
4292.82
4291.19
4289.58
4287.99
4286.42
4284.87
4283.33
4281.82
4280.31
4278.82
4277.34
4275.87
4274.41
4272.96
4271.52
4270.08
4268.66
4267.24
4265.84
4264.44
4263.06
4261.68
4260.31
4258.95
4257.61
4256.27
4254.94
4253.63
4252.32
4251.02
4249.73
4248.45
4247.19
4245.93
4244.67
4243.43
4242.19
4240.97
4239.74
4238.53
4237.32
4236.11
4234.91
4233.71
4232.52
4231.32
4230.13
4228.93
4227.74
4226.54
4225.34
4224.13
4222.92
4221.7
4220.47
4219.23
4217.97
4216.69
4215.39
4214.06
4212.7
4211.3
4209.85
4208.34
4206.76
4205.08
4203.31
4201.43
4199.44
4197.39
4195.29
4193.19
4191.09
4189
4186.9
4184.75
4182.46
4179.75
4174.88
4170.37
4166.73
4163.01
4159.61
4156.38
4153.44
4150.48
4147.46
4144.5
4141.64
4139.09
4136.98
4135.3
4133.97
4132.93
4132.14
4131.57
4131.19
4131.01
4383.73
4383.51
4383.08
4382.47
4381.71
4380.83
4379.86
4378.81
4377.69
4376.51
4375.27
4373.99
4372.65
4371.25
4369.8
4368.28
4366.69
4365.03
4363.28
4361.43
4359.48
4357.42
4355.26
4353.02
4350.71
4348.36
4345.99
4343.61
4341.24
4338.88
4336.55
4334.23
4331.94
4329.67
4327.44
4325.23
4323.05
4320.9
4318.78
4316.69
4314.64
4312.62
4310.63
4308.68
4306.76
4304.88
4303.04
4301.23
4299.46
4297.72
4296.01
4294.32
4292.67
4291.05
4289.44
4287.86
4286.3
4284.76
4283.24
4281.73
4280.23
4278.74
4277.27
4275.8
4274.35
4272.9
4271.46
4270.03
4268.6
4267.19
4265.78
4264.38
4263
4261.62
4260.25
4258.9
4257.55
4256.21
4254.89
4253.57
4252.26
4250.97
4249.68
4248.4
4247.13
4245.88
4244.63
4243.39
4242.15
4240.93
4239.71
4238.5
4237.29
4236.09
4234.9
4233.7
4232.51
4231.32
4230.14
4228.95
4227.76
4226.57
4225.38
4224.19
4222.99
4221.78
4220.57
4219.34
4218.11
4216.85
4215.58
4214.29
4212.97
4211.61
4210.21
4208.74
4207.21
4205.57
4203.82
4201.92
4199.88
4197.77
4195.63
4193.53
4191.48
4189.52
4187.63
4185.82
4184.08
4182.39
4177.26
4170.56
4164.94
4161.05
4158.25
4155.4
4152.88
4149.95
4146.68
4143.51
4140.22
4137.35
4135.18
4133.59
4132.38
4131.45
4130.75
4130.24
4129.91
4129.74
4382.31
4382.11
4381.74
4381.21
4380.54
4379.75
4378.87
4377.9
4376.86
4375.75
4374.58
4373.35
4372.07
4370.71
4369.3
4367.81
4366.25
4364.59
4362.85
4361
4359.04
4356.98
4354.83
4352.6
4350.31
4347.99
4345.64
4343.29
4340.95
4338.61
4336.28
4333.98
4331.7
4329.44
4327.2
4325
4322.82
4320.67
4318.55
4316.46
4314.4
4312.38
4310.39
4308.44
4306.53
4304.65
4302.81
4301.01
4299.24
4297.51
4295.81
4294.14
4292.49
4290.88
4289.29
4287.72
4286.17
4284.64
4283.12
4281.62
4280.14
4278.66
4277.19
4275.73
4274.28
4272.83
4271.39
4269.96
4268.54
4267.12
4265.71
4264.32
4262.93
4261.55
4260.18
4258.83
4257.48
4256.14
4254.82
4253.5
4252.2
4250.9
4249.61
4248.34
4247.07
4245.82
4244.57
4243.34
4242.11
4240.89
4239.67
4238.47
4237.26
4236.07
4234.88
4233.69
4232.51
4231.32
4230.14
4228.96
4227.79
4226.61
4225.43
4224.24
4223.06
4221.87
4220.67
4219.47
4218.26
4217.04
4215.8
4214.55
4213.27
4211.97
4210.62
4209.22
4207.75
4206.18
4204.46
4202.54
4200.4
4198.16
4195.94
4193.81
4191.8
4189.95
4188.27
4186.8
4185.55
4184.12
4178.5
4169.86
4163.18
4158.65
4155.07
4151.99
4149.29
4146.45
4144.5
4141.61
4138.25
4134.79
4132.79
4131.49
4130.51
4129.75
4129.16
4128.73
4128.45
4128.31
4380.88
4380.72
4380.4
4379.93
4379.34
4378.63
4377.83
4376.94
4375.97
4374.94
4373.83
4372.66
4371.43
4370.12
4368.74
4367.29
4365.74
4364.1
4362.36
4360.51
4358.55
4356.5
4354.36
4352.15
4349.9
4347.6
4345.29
4342.96
4340.63
4338.31
4336
4333.71
4331.43
4329.18
4326.95
4324.74
4322.56
4320.41
4318.28
4316.19
4314.13
4312.11
4310.12
4308.17
4306.26
4304.38
4302.55
4300.75
4298.99
4297.27
4295.58
4293.92
4292.29
4290.69
4289.11
4287.56
4286.02
4284.5
4283
4281.51
4280.03
4278.56
4277.1
4275.65
4274.2
4272.75
4271.32
4269.89
4268.46
4267.04
4265.64
4264.24
4262.85
4261.47
4260.1
4258.75
4257.4
4256.07
4254.74
4253.42
4252.12
4250.82
4249.54
4248.27
4247
4245.75
4244.51
4243.27
4242.05
4240.83
4239.63
4238.42
4237.23
4236.04
4234.85
4233.67
4232.5
4231.32
4230.15
4228.98
4227.81
4226.64
4225.47
4224.31
4223.14
4221.96
4220.79
4219.61
4218.43
4217.24
4216.04
4214.83
4213.6
4212.36
4211.09
4209.77
4208.4
4206.94
4205.31
4203.39
4201.02
4198.54
4196.16
4193.97
4191.97
4190.21
4188.72
4187.52
4186.62
4185.11
4177.44
4167.19
4159.26
4153.15
4148.41
4144.87
4142.31
4140.41
4139.57
4136.93
4132.79
4130.5
4129.8
4129.09
4128.43
4127.86
4127.42
4127.08
4126.85
4126.74
4379.46
4379.32
4379.04
4378.63
4378.1
4377.47
4376.74
4375.93
4375.04
4374.07
4373.03
4371.92
4370.74
4369.48
4368.14
4366.71
4365.19
4363.56
4361.82
4359.98
4358.03
4356
4353.88
4351.71
4349.48
4347.22
4344.93
4342.62
4340.31
4338
4335.7
4333.41
4331.14
4328.89
4326.66
4324.46
4322.28
4320.12
4317.99
4315.89
4313.83
4311.8
4309.81
4307.85
4305.94
4304.07
4302.24
4300.46
4298.71
4296.99
4295.32
4293.67
4292.06
4290.47
4288.91
4287.37
4285.85
4284.35
4282.86
4281.38
4279.92
4278.46
4277
4275.56
4274.11
4272.67
4271.24
4269.81
4268.38
4266.96
4265.55
4264.15
4262.76
4261.38
4260.01
4258.66
4257.31
4255.98
4254.65
4253.34
4252.03
4250.74
4249.46
4248.18
4246.92
4245.67
4244.43
4243.21
4241.99
4240.78
4239.57
4238.38
4237.19
4236.01
4234.83
4233.65
4232.48
4231.32
4230.15
4228.99
4227.84
4226.68
4225.52
4224.37
4223.21
4222.06
4220.91
4219.75
4218.6
4217.44
4216.28
4215.12
4213.95
4212.78
4211.59
4210.38
4209.15
4207.85
4206.45
4204.72
4201.91
4198.91
4196.21
4193.94
4191.88
4190.2
4188.87
4187.88
4187.23
4182.49
4172.14
4162.2
4153.53
4146.26
4140.56
4136.77
4134.66
4133.31
4132
4129.42
4126.48
4127.03
4126.94
4126.62
4126.24
4125.87
4125.56
4125.31
4125.14
4125.06
4378.04
4377.92
4377.67
4377.31
4376.84
4376.28
4375.62
4374.88
4374.06
4373.16
4372.19
4371.13
4370
4368.79
4367.48
4366.08
4364.58
4362.96
4361.24
4359.41
4357.49
4355.49
4353.41
4351.27
4349.07
4346.84
4344.57
4342.28
4339.98
4337.68
4335.38
4333.1
4330.83
4328.58
4326.36
4324.15
4321.97
4319.8
4317.67
4315.56
4313.49
4311.45
4309.46
4307.5
4305.59
4303.72
4301.9
4300.12
4298.38
4296.68
4295.02
4293.39
4291.8
4290.23
4288.69
4287.17
4285.67
4284.18
4282.71
4281.25
4279.79
4278.35
4276.9
4275.46
4274.02
4272.59
4271.15
4269.72
4268.29
4266.87
4265.45
4264.05
4262.66
4261.28
4259.91
4258.56
4257.21
4255.88
4254.55
4253.24
4251.93
4250.64
4249.36
4248.09
4246.83
4245.59
4244.35
4243.13
4241.91
4240.71
4239.51
4238.32
4237.14
4235.97
4234.8
4233.63
4232.47
4231.31
4230.16
4229.01
4227.86
4226.71
4225.57
4224.43
4223.29
4222.16
4221.03
4219.9
4218.77
4217.65
4216.53
4215.42
4214.31
4213.21
4212.12
4211.03
4209.94
4208.88
4207.86
4206.9
4204.16
4200.28
4196.45
4193.24
4191
4189.75
4188.68
4187.87
4187.25
4178.54
4166.44
4155.94
4146.4
4137.81
4130.79
4127
4126.26
4126.17
4125.72
4124.16
4123.21
4124.25
4124.31
4124.22
4124.04
4123.83
4123.63
4123.47
4123.35
4123.29
4376.61
4376.5
4376.29
4375.97
4375.56
4375.05
4374.46
4373.79
4373.04
4372.21
4371.3
4370.3
4369.22
4368.05
4366.78
4365.4
4363.92
4362.33
4360.63
4358.84
4356.96
4355
4352.96
4350.86
4348.7
4346.48
4344.23
4341.95
4339.65
4337.35
4335.05
4332.77
4330.5
4328.26
4326.03
4323.82
4321.63
4319.46
4317.31
4315.2
4313.11
4311.06
4309.06
4307.1
4305.19
4303.33
4301.51
4299.74
4298.02
4296.34
4294.69
4293.09
4291.51
4289.97
4288.45
4286.95
4285.47
4284
4282.55
4281.1
4279.67
4278.23
4276.8
4275.37
4273.94
4272.5
4271.06
4269.63
4268.19
4266.77
4265.35
4263.94
4262.55
4261.17
4259.8
4258.45
4257.1
4255.77
4254.44
4253.13
4251.83
4250.53
4249.25
4247.98
4246.73
4245.49
4244.26
4243.04
4241.83
4240.63
4239.44
4238.26
4237.09
4235.92
4234.76
4233.6
4232.45
4231.3
4230.16
4229.01
4227.88
4226.74
4225.62
4224.49
4223.37
4222.25
4221.14
4220.04
4218.94
4217.86
4216.78
4215.72
4214.67
4213.64
4212.63
4211.66
4210.73
4209.86
4209.13
4208.59
4205.13
4200.11
4196.33
4192.77
4189.98
4187.75
4185.63
4183.2
4179.33
4169.59
4159.14
4148.73
4138.32
4127.79
4117.78
4114.17
4117.2
4119.41
4120.53
4120.31
4120.53
4121.58
4121.83
4121.9
4121.86
4121.77
4121.67
4121.57
4121.5
4121.46
4375.15
4375.06
4374.88
4374.6
4374.24
4373.8
4373.27
4372.67
4371.98
4371.21
4370.36
4369.42
4368.39
4367.26
4366.02
4364.68
4363.23
4361.67
4360.02
4358.28
4356.45
4354.54
4352.55
4350.49
4348.36
4346.16
4343.92
4341.63
4339.33
4337.02
4334.71
4332.42
4330.16
4327.91
4325.69
4323.48
4321.28
4319.1
4316.93
4314.8
4312.69
4310.64
4308.62
4306.66
4304.75
4302.89
4301.08
4299.32
4297.61
4295.95
4294.33
4292.74
4291.2
4289.68
4288.18
4286.71
4285.25
4283.81
4282.38
4280.95
4279.53
4278.11
4276.7
4275.27
4273.85
4272.42
4270.98
4269.54
4268.09
4266.66
4265.23
4263.82
4262.42
4261.04
4259.68
4258.32
4256.98
4255.65
4254.33
4253.01
4251.71
4250.41
4249.13
4247.86
4246.61
4245.37
4244.15
4242.94
4241.74
4240.55
4239.37
4238.2
4237.03
4235.87
4234.72
4233.57
4232.42
4231.29
4230.15
4229.02
4227.89
4226.77
4225.66
4224.55
4223.44
4222.34
4221.25
4220.17
4219.1
4218.05
4217.01
4215.99
4215
4214.04
4213.12
4212.25
4211.44
4210.72
4210.13
4209.71
4206.62
4200.89
4195.97
4191.54
4187.54
4183.79
4179.93
4175.48
4169.64
4161.34
4151.8
4141.51
4130.34
4117.26
4106.44
4104.26
4108.96
4113.72
4116.75
4118
4118.58
4119.24
4119.54
4119.69
4119.74
4119.73
4119.7
4119.66
4119.62
4119.6
4373.67
4373.59
4373.43
4373.2
4372.89
4372.5
4372.04
4371.5
4370.88
4370.18
4369.39
4368.5
4367.52
4366.42
4365.22
4363.92
4362.52
4361.02
4359.44
4357.76
4356
4354.14
4352.21
4350.18
4348.07
4345.89
4343.64
4341.34
4339.01
4336.67
4334.35
4332.05
4329.78
4327.54
4325.33
4323.12
4320.91
4318.71
4316.52
4314.36
4312.24
4310.16
4308.13
4306.17
4304.26
4302.4
4300.6
4298.85
4297.16
4295.52
4293.92
4292.37
4290.85
4289.36
4287.9
4286.45
4285.02
4283.61
4282.2
4280.8
4279.4
4278
4276.6
4275.19
4273.77
4272.34
4270.89
4269.44
4267.99
4266.54
4265.1
4263.68
4262.28
4260.9
4259.54
4258.19
4256.85
4255.52
4254.2
4252.88
4251.58
4250.28
4249
4247.73
4246.48
4245.25
4244.03
4242.83
4241.64
4240.46
4239.29
4238.12
4236.97
4235.82
4234.67
4233.53
4232.4
4231.27
4230.14
4229.02
4227.9
4226.8
4225.69
4224.59
4223.5
4222.42
4221.35
4220.29
4219.25
4218.22
4217.22
4216.25
4215.31
4214.41
4213.56
4212.78
4212.07
4211.45
4210.93
4210.49
4207.1
4200.84
4195.14
4189.86
4184.86
4179.95
4174.82
4169.13
4162.42
4154.35
4145.19
4135.18
4124.28
4112.16
4104.49
4103.52
4105.18
4109.77
4113.97
4116.21
4116.74
4117.13
4117.4
4117.58
4117.67
4117.72
4117.73
4117.73
4117.72
4117.72
4372.14
4372.08
4371.95
4371.76
4371.5
4371.17
4370.77
4370.3
4369.74
4369.1
4368.37
4367.53
4366.59
4365.55
4364.4
4363.16
4361.83
4360.4
4358.89
4357.29
4355.6
4353.82
4351.93
4349.95
4347.86
4345.68
4343.41
4341.07
4338.7
4336.32
4333.96
4331.65
4329.38
4327.16
4324.95
4322.75
4320.54
4318.32
4316.09
4313.89
4311.73
4309.63
4307.59
4305.62
4303.71
4301.85
4300.06
4298.33
4296.66
4295.05
4293.48
4291.96
4290.47
4289.02
4287.59
4286.18
4284.78
4283.39
4282.02
4280.64
4279.26
4277.89
4276.5
4275.11
4273.7
4272.27
4270.82
4269.35
4267.88
4266.4
4264.95
4263.52
4262.11
4260.74
4259.39
4258.05
4256.72
4255.39
4254.07
4252.75
4251.43
4250.13
4248.84
4247.58
4246.33
4245.11
4243.9
4242.7
4241.52
4240.36
4239.19
4238.04
4236.9
4235.75
4234.62
4233.49
4232.36
4231.24
4230.13
4229.02
4227.91
4226.81
4225.72
4224.64
4223.56
4222.49
4221.44
4220.4
4219.38
4218.38
4217.41
4216.47
4215.57
4214.72
4213.94
4213.23
4212.6
4212.07
4211.62
4211.06
4207.16
4200.24
4193.89
4187.9
4182.1
4176.31
4170.29
4163.8
4156.56
4148.43
4139.45
4129.73
4119.45
4109
4103.29
4102.74
4102.5
4106.23
4111.54
4114.45
4114.89
4115.13
4115.36
4115.54
4115.66
4115.74
4115.79
4115.81
4115.82
4115.82
4370.57
4370.52
4370.42
4370.26
4370.05
4369.78
4369.45
4369.04
4368.55
4367.97
4367.29
4366.51
4365.63
4364.65
4363.58
4362.41
4361.17
4359.83
4358.41
4356.89
4355.29
4353.58
4351.76
4349.82
4347.75
4345.55
4343.24
4340.84
4338.39
4335.94
4333.53
4331.2
4328.95
4326.75
4324.58
4322.4
4320.18
4317.92
4315.64
4313.37
4311.16
4309.03
4306.98
4305
4303.09
4301.25
4299.47
4297.75
4296.1
4294.52
4292.99
4291.51
4290.07
4288.65
4287.26
4285.89
4284.53
4283.18
4281.83
4280.48
4279.13
4277.78
4276.42
4275.04
4273.65
4272.22
4270.76
4269.27
4267.76
4266.26
4264.77
4263.33
4261.92
4260.56
4259.22
4257.9
4256.58
4255.25
4253.93
4252.6
4251.28
4249.97
4248.67
4247.41
4246.16
4244.95
4243.75
4242.57
4241.4
4240.24
4239.1
4237.95
4236.82
4235.69
4234.56
4233.44
4232.33
4231.21
4230.11
4229.01
4227.91
4226.82
4225.74
4224.67
4223.61
4222.55
4221.51
4220.49
4219.48
4218.5
4217.55
4216.64
4215.78
4214.98
4214.24
4213.59
4213.04
4212.59
4212.25
4211.4
4206.49
4199.08
4192.27
4185.74
4179.33
4172.89
4166.24
4159.2
4151.61
4143.36
4134.44
4124.86
4114.77
4105.52
4101.96
4101.95
4101.78
4104.42
4109.36
4111.99
4112.94
4113.14
4113.37
4113.55
4113.7
4113.8
4113.86
4113.9
4113.93
4113.94
4368.92
4368.89
4368.82
4368.7
4368.55
4368.34
4368.07
4367.73
4367.3
4366.79
4366.17
4365.46
4364.65
4363.76
4362.77
4361.71
4360.55
4359.32
4357.99
4356.58
4355.06
4353.44
4351.69
4349.81
4347.76
4345.54
4343.16
4340.65
4338.08
4335.52
4333.03
4330.67
4328.45
4326.32
4324.22
4322.09
4319.87
4317.55
4315.17
4312.8
4310.52
4308.36
4306.3
4304.33
4302.42
4300.57
4298.8
4297.1
4295.49
4293.94
4292.46
4291.02
4289.63
4288.27
4286.92
4285.59
4284.27
4282.95
4281.64
4280.32
4279
4277.68
4276.35
4275
4273.63
4272.21
4270.73
4269.2
4267.65
4266.09
4264.56
4263.09
4261.69
4260.35
4259.04
4257.74
4256.44
4255.12
4253.79
4252.46
4251.11
4249.78
4248.48
4247.21
4245.97
4244.77
4243.58
4242.42
4241.27
4240.12
4238.99
4237.86
4236.74
4235.62
4234.5
4233.39
4232.28
4231.18
4230.08
4228.99
4227.9
4226.82
4225.75
4224.69
4223.64
4222.6
4221.57
4220.56
4219.57
4218.6
4217.66
4216.77
4215.93
4215.16
4214.46
4213.86
4213.36
4212.98
4212.73
4210.31
4204.22
4197.32
4190.36
4183.47
4176.61
4169.68
4162.57
4155.15
4147.31
4138.97
4130.07
4120.51
4109.99
4102.46
4101.28
4101.33
4101.29
4102.87
4107.01
4109.65
4110.83
4111.14
4111.4
4111.61
4111.77
4111.89
4111.97
4112.02
4112.05
4112.06
4367.2
4367.18
4367.13
4367.06
4366.96
4366.82
4366.62
4366.35
4366
4365.56
4365.02
4364.4
4363.69
4362.89
4362.01
4361.05
4360
4358.88
4357.66
4356.36
4354.95
4353.42
4351.77
4349.96
4347.95
4345.68
4343.21
4340.52
4337.75
4335.04
4332.39
4330.01
4327.86
4325.85
4323.88
4321.86
4319.66
4317.24
4314.69
4312.13
4309.76
4307.58
4305.54
4303.58
4301.68
4299.83
4298.06
4296.38
4294.79
4293.3
4291.87
4290.5
4289.16
4287.86
4286.57
4285.29
4284.01
4282.73
4281.45
4280.17
4278.88
4277.59
4276.3
4274.99
4273.65
4272.25
4270.76
4269.17
4267.53
4265.89
4264.29
4262.79
4261.41
4260.1
4258.85
4257.59
4256.31
4255
4253.67
4252.31
4250.94
4249.57
4248.25
4246.98
4245.75
4244.56
4243.4
4242.26
4241.12
4240
4238.88
4237.76
4236.65
4235.54
4234.44
4233.33
4232.24
4231.14
4230.05
4228.97
4227.89
4226.82
4225.76
4224.71
4223.67
4222.64
4221.61
4220.61
4219.62
4218.66
4217.73
4216.85
4216.02
4215.27
4214.59
4214.02
4213.56
4213.22
4213.01
4209.64
4202.76
4195.61
4188.39
4181.17
4173.95
4166.65
4159.2
4151.52
4143.52
4135.15
4126.36
4117.11
4107.28
4101.37
4100.76
4100.79
4100.8
4102.11
4105.52
4107.8
4108.78
4109.19
4109.5
4109.72
4109.89
4110.01
4110.09
4110.15
4110.18
4110.2
4365.37
4365.36
4365.35
4365.32
4365.28
4365.21
4365.09
4364.9
4364.64
4364.3
4363.87
4363.35
4362.75
4362.07
4361.3
4360.45
4359.52
4358.51
4357.42
4356.23
4354.94
4353.54
4352
4350.3
4348.39
4346.03
4343.48
4340.48
4337.34
4334.49
4331.49
4329.13
4327.13
4325.33
4323.61
4321.81
4319.66
4317.05
4314.22
4311.28
4308.81
4306.65
4304.69
4302.78
4300.89
4299.02
4297.22
4295.55
4294.01
4292.58
4291.23
4289.93
4288.67
4287.43
4286.2
4284.98
4283.75
4282.51
4281.26
4280.01
4278.76
4277.51
4276.26
4275.01
4273.73
4272.38
4270.88
4269.18
4267.42
4265.65
4263.93
4262.38
4261.03
4259.81
4258.65
4257.47
4256.21
4254.9
4253.57
4252.19
4250.76
4249.32
4247.97
4246.7
4245.49
4244.33
4243.2
4242.08
4240.97
4239.87
4238.76
4237.66
4236.56
4235.46
4234.37
4233.28
4232.19
4231.1
4230.01
4228.93
4227.86
4226.8
4225.75
4224.71
4223.68
4222.66
4221.64
4220.64
4219.65
4218.68
4217.75
4216.87
4216.04
4215.29
4214.63
4214.07
4213.63
4213.32
4213.11
4209.21
4201.58
4193.97
4186.41
4178.88
4171.35
4163.77
4156.08
4148.21
4140.1
4131.74
4123.12
4114.31
4105.48
4100.72
4100.26
4100.27
4100.31
4100.49
4103.5
4106.21
4106.92
4107.35
4107.67
4107.89
4108.06
4108.17
4108.25
4108.3
4108.34
4108.35
4363.41
4363.42
4363.44
4363.46
4363.48
4363.49
4363.47
4363.39
4363.26
4363.04
4362.74
4362.35
4361.87
4361.3
4360.66
4359.93
4359.12
4358.23
4357.26
4356.2
4355.05
4353.78
4352.39
4350.86
4349.27
4347.26
4344.65
4340.2
4336
4332.79
4329.91
4327.9
4326.2
4324.74
4323.42
4322.1
4320.35
4317.18
4313.11
4309.91
4307.54
4305.54
4303.77
4301.98
4300.08
4298.12
4296.26
4294.6
4293.13
4291.79
4290.53
4289.33
4288.15
4286.99
4285.84
4284.67
4283.49
4282.29
4281.08
4279.86
4278.64
4277.42
4276.23
4275.06
4273.89
4272.66
4271.2
4269.26
4267.3
4265.38
4263.38
4261.78
4260.53
4259.47
4258.48
4257.43
4256.15
4254.82
4253.53
4252.11
4250.6
4248.97
4247.6
4246.35
4245.18
4244.08
4242.99
4241.91
4240.82
4239.73
4238.64
4237.55
4236.47
4235.38
4234.3
4233.22
4232.13
4231.05
4229.97
4228.9
4227.83
4226.78
4225.74
4224.71
4223.69
4222.67
4221.66
4220.66
4219.66
4218.68
4217.73
4216.83
4215.99
4215.22
4214.55
4214
4213.58
4213.29
4213.08
4208.67
4200.36
4192.3
4184.4
4176.59
4168.81
4161.01
4153.13
4145.13
4136.95
4128.58
4120.05
4111.52
4103.6
4099.89
4099.67
4099.71
4099.79
4099.95
4102.44
4104.84
4105.28
4105.64
4105.92
4106.12
4106.27
4106.37
4106.44
4106.48
4106.51
4106.52
4361.32
4361.34
4361.38
4361.44
4361.54
4361.65
4361.76
4361.85
4361.87
4361.81
4361.65
4361.4
4361.05
4360.61
4360.08
4359.47
4358.79
4358.02
4357.18
4356.26
4355.26
4354.17
4352.9
4351.67
4350.13
4346.54
4342.49
4338.29
4334.71
4331.42
4328.37
4326.3
4325.05
4323.99
4323.23
4322.52
4320.2
4316.22
4311.99
4308.23
4305.87
4304.18
4302.88
4301.27
4299.33
4297.14
4295.08
4293.46
4292.12
4290.91
4289.78
4288.69
4287.62
4286.56
4285.48
4284.38
4283.25
4282.09
4280.91
4279.71
4278.5
4277.32
4276.17
4275.1
4274.11
4273.18
4272.16
4269.55
4266.44
4264.02
4262.17
4260.83
4259.83
4259.05
4258.36
4257.7
4256.14
4254.53
4253.73
4252.17
4249.94
4248.13
4247.13
4245.93
4244.81
4243.8
4242.77
4241.73
4240.67
4239.59
4238.52
4237.45
4236.38
4235.3
4234.23
4233.16
4232.08
4231
4229.92
4228.85
4227.79
4226.74
4225.71
4224.69
4223.69
4222.69
4221.68
4220.66
4219.64
4218.63
4217.66
4216.74
4215.86
4215.06
4214.36
4213.79
4213.38
4213.11
4212.83
4207.81
4198.9
4190.46
4182.29
4174.26
4166.29
4158.33
4150.32
4142.21
4133.98
4125.59
4116.99
4108.13
4101.04
4098.88
4099.01
4099.1
4099.23
4099.42
4101.58
4103.43
4103.73
4104.02
4104.25
4104.41
4104.53
4104.6
4104.65
4104.68
4104.69
4104.69
4359.05
4359.07
4359.13
4359.24
4359.41
4359.67
4359.99
4360.29
4360.52
4360.64
4360.64
4360.53
4360.31
4359.99
4359.58
4359.09
4358.53
4357.89
4357.18
4356.39
4355.58
4354.72
4353.61
4350.45
4346.89
4342.57
4338.82
4335.34
4332.23
4329.37
4326.67
4324.98
4323.61
4322.96
4322.59
4322.2
4319.42
4314.68
4310.21
4306.2
4303.14
4302.26
4301.82
4300.6
4298.41
4295.6
4293.39
4292.05
4290.97
4289.96
4288.99
4288.04
4287.09
4286.13
4285.14
4284.12
4283.04
4281.92
4280.76
4279.56
4278.35
4277.17
4276.05
4275.05
4274.28
4273.66
4271.98
4268.81
4265.84
4263.27
4260.93
4259.41
4258.9
4258.54
4258.01
4257.36
4255.81
4253.88
4252.66
4251.36
4249.67
4248.09
4246.5
4245.11
4244.34
4243.53
4242.58
4241.57
4240.53
4239.46
4238.4
4237.34
4236.28
4235.22
4234.16
4233.1
4232.03
4230.95
4229.87
4228.79
4227.73
4226.69
4225.67
4224.67
4223.68
4222.7
4221.71
4220.67
4219.61
4218.55
4217.55
4216.59
4215.66
4214.79
4214.04
4213.43
4213.01
4212.75
4212.39
4206.28
4196.97
4188.36
4180.04
4171.87
4163.77
4155.69
4147.59
4139.43
4131.18
4122.8
4114.21
4105.25
4099.23
4098.19
4098.32
4098.45
4098.62
4098.78
4100.29
4101.96
4102.21
4102.45
4102.63
4102.76
4102.83
4102.87
4102.88
4102.88
4102.88
4102.88
4356.59
4356.61
4356.67
4356.81
4357.08
4357.52
4358.15
4358.76
4359.24
4359.57
4359.73
4359.75
4359.65
4359.45
4359.15
4358.78
4358.34
4357.84
4357.25
4356.55
4355.96
4354.68
4350.87
4345.67
4341.66
4338.03
4334.86
4332.03
4329.49
4327.18
4325.11
4323.53
4322.31
4321.69
4321.53
4321.27
4318.11
4312.85
4307.97
4303.03
4299.86
4300.58
4300.79
4299.16
4295.43
4292.03
4291.1
4290.45
4289.73
4288.97
4288.18
4287.38
4286.57
4285.73
4284.85
4283.9
4282.88
4281.79
4280.64
4279.42
4278.18
4276.96
4275.8
4274.78
4274.04
4273.53
4271.51
4267.98
4264.78
4261.88
4259.13
4257.7
4257.73
4257.89
4257.39
4256.22
4254.2
4252.27
4251.26
4250.36
4249.14
4248.03
4246.41
4244.95
4244.22
4243.4
4242.44
4241.45
4240.4
4239.32
4238.27
4237.24
4236.19
4235.14
4234.1
4233.04
4231.98
4230.9
4229.81
4228.72
4227.64
4226.61
4225.6
4224.63
4223.68
4222.74
4221.78
4220.72
4219.56
4218.42
4217.41
4216.41
4215.39
4214.4
4213.57
4212.9
4212.44
4212.18
4209.84
4202.61
4194.33
4185.96
4177.65
4169.42
4161.24
4153.08
4144.92
4136.73
4128.51
4120.21
4111.79
4103.17
4097.97
4097.4
4097.58
4097.78
4098.01
4098.28
4098.94
4100.29
4100.69
4100.94
4101.08
4101.15
4101.16
4101.15
4101.12
4101.09
4101.07
4101.06
4353.92
4353.93
4353.97
4354.11
4354.45
4355.13
4356.26
4357.32
4358.11
4358.64
4358.95
4359.09
4359.09
4358.99
4358.8
4358.54
4358.22
4357.86
4357.44
4356.67
4353.46
4349.52
4344.31
4339.71
4336.04
4333.05
4330.56
4328.42
4326.53
4324.74
4323.06
4321.61
4321.04
4319.85
4320.14
4320.17
4316.14
4310.63
4305.8
4301.17
4298.84
4299.43
4299.8
4296.95
4292.23
4289.24
4289.28
4289.01
4288.55
4287.99
4287.38
4286.74
4286.08
4285.38
4284.61
4283.76
4282.79
4281.72
4280.58
4279.32
4277.99
4276.68
4275.42
4274.22
4273.35
4272.82
4270.6
4266.82
4263.43
4260.33
4257.35
4255.79
4255.91
4255.75
4255.31
4254.01
4252.57
4251.47
4250.63
4249.78
4248.89
4248.27
4247.03
4245.54
4244.62
4243.44
4242.27
4241.37
4240.23
4239.08
4238.13
4237.15
4236.07
4235.06
4234.05
4233.01
4231.94
4230.86
4229.76
4228.63
4227.51
4226.52
4225.51
4224.55
4223.66
4222.79
4221.97
4220.9
4219.45
4218.16
4217.27
4216.24
4215.08
4213.87
4212.92
4212.16
4211.65
4211.36
4207.71
4199.97
4191.8
4183.49
4175.18
4166.91
4158.68
4150.47
4142.27
4134.08
4125.91
4117.74
4109.59
4101.42
4096.89
4096.59
4096.79
4097.05
4097.37
4097.73
4098.18
4098.93
4099.33
4099.53
4099.6
4099.59
4099.53
4099.45
4099.37
4099.3
4099.25
4099.23
4351.06
4351.04
4351.02
4351.09
4351.39
4352.22
4354.43
4356.11
4357.21
4357.92
4358.34
4358.56
4358.64
4358.62
4358.52
4358.36
4358.14
4357.93
4355.07
4351.56
4346.46
4341.87
4337.13
4332.81
4329.76
4327.57
4325.9
4324.57
4323.47
4322.2
4320.77
4319.34
4318.27
4316.82
4317.08
4316.39
4312.18
4307.73
4303.43
4299.27
4297.25
4297.49
4297
4294.1
4290.23
4288.03
4287.97
4287.78
4287.47
4287.06
4286.61
4286.13
4285.62
4285.08
4284.47
4283.74
4282.78
4281.73
4280.64
4279.26
4277.71
4276.33
4275
4273.32
4272.12
4271.47
4269.15
4265.26
4261.81
4258.65
4255.63
4254.11
4254.03
4253.5
4253.34
4252.92
4251.94
4251.25
4250.6
4249.72
4248.86
4248.09
4247.39
4246.48
4244.78
4242.99
4241.64
4240.52
4239.36
4238.24
4237.21
4236.18
4235.14
4234.12
4233.11
4232.09
4231.06
4230.01
4228.85