/*--------------------------------*- C++ -*----------------------------------*\
| =========                 |                                                 |
| \\      /  F ield         | OpenFOAM: The Open Source CFD Toolbox           |
|  \\    /   O peration     | Version:  2.1.0                                 |
|   \\  /    A nd           | Web:      www.OpenFOAM.org                      |
|    \\/     M anipulation  |                                                 |
\*---------------------------------------------------------------------------*/
FoamFile
{
    version     2.0;
    format      ascii;
    class       volScalarField;
    location    "12045";
    object      kr_o;
}
// * * * * * * * * * * * * * * * * * * * * * * * * * * * * * * * * * * * * * //

dimensions      [0 0 0 0 0 0 0];

internalField   nonuniform List<scalar> 
8000
(
0.035199
0.042319
0.0517063
0.0627195
0.0749243
0.08795
0.101476
0.115245
0.129066
0.142806
0.156392
0.169798
0.182998
0.196007
0.208934
0.221919
0.235134
0.248781
0.263099
0.278372
0.294976
0.31338
0.334122
0.357683
0.384926
0.41686
0.453513
0.492222
0.526387
0.548678
0.558504
0.561558
0.56231
0.562467
0.562495
0.562499
0.5625
0.5625
0.5625
0.5625
0.0423184
0.0492421
0.058365
0.0691177
0.0810757
0.093873
0.107208
0.120836
0.134574
0.148296
0.161929
0.175444
0.188799
0.202038
0.215282
0.228684
0.242435
0.256758
0.271915
0.288236
0.306145
0.326145
0.348719
0.374241
0.403488
0.436783
0.472955
0.50824
0.536515
0.553139
0.559875
0.561886
0.562376
0.562478
0.562497
0.5625
0.5625
0.5625
0.5625
0.5625
0.0517067
0.0583638
0.067166
0.0775837
0.0892089
0.101705
0.114792
0.128244
0.141888
0.155603
0.169315
0.182976
0.196531
0.210065
0.223709
0.237634
0.252047
0.267189
0.283355
0.300924
0.320349
0.342095
0.366443
0.393856
0.424729
0.458453
0.492712
0.523266
0.545202
0.556653
0.560904
0.562128
0.562425
0.562487
0.562498
0.5625
0.5625
0.5625
0.5625
0.5625
0.062719
0.0691182
0.0775839
0.0876379
0.0989094
0.111093
0.12394
0.137246
0.150849
0.164634
0.178518
0.192401
0.206281
0.220259
0.234483
0.249146
0.26447
0.280725
0.298256
0.317476
0.33881
0.362512
0.388868
0.418214
0.450062
0.482654
0.51292
0.53707
0.552246
0.559214
0.561614
0.562292
0.562457
0.562492
0.562499
0.5625
0.5625
0.5625
0.5625
0.5625
0.0749244
0.0810759
0.0892087
0.0989091
0.109849
0.121762
0.134433
0.147685
0.161374
0.175387
0.189598
0.203898
0.21834
0.233042
0.248175
0.26395
0.280622
0.298516
0.31802
0.339516
0.363206
0.389357
0.418152
0.448954
0.480021
0.508754
0.532357
0.548621
0.557332
0.560885
0.562058
0.562393
0.562477
0.562496
0.562499
0.5625
0.5625
0.5625
0.5625
0.5625
0.0879498
0.0938727
0.101704
0.111093
0.121762
0.133491
0.146107
0.15947
0.173467
0.187969
0.202786
0.217883
0.233321
0.24924
0.26584
0.283372
0.302159
0.322577
0.344954
0.369462
0.396433
0.425751
0.456339
0.486104
0.512562
0.533671
0.548272
0.556579
0.560374
0.561819
0.562304
0.56245
0.562489
0.562498
0.5625
0.5625
0.5625
0.5625
0.5625
0.5625
0.101475
0.107207
0.114791
0.12394
0.134433
0.146106
0.158847
0.172579
0.18723
0.202628
0.218668
0.235263
0.252474
0.270474
0.289526
0.30997
0.332168
0.356369
0.382934
0.411999
0.442805
0.473428
0.501272
0.524151
0.540982
0.551825
0.557793
0.560613
0.561797
0.562255
0.562422
0.562478
0.562495
0.562499
0.5625
0.5625
0.5625
0.5625
0.5625
0.5625
0.115245
0.120836
0.128244
0.137245
0.147684
0.15947
0.172578
0.187039
0.202837
0.220039
0.23857
0.258034
0.278476
0.300182
0.323529
0.348832
0.376544
0.406909
0.439187
0.471251
0.500121
0.52339
0.540159
0.550895
0.556956
0.560011
0.561427
0.562048
0.562313
0.562425
0.562472
0.562491
0.562498
0.5625
0.5625
0.5625
0.5625
0.5625
0.5625
0.5625
0.129066
0.134574
0.141888
0.150849
0.161374
0.173467
0.18723
0.202837
0.220755
0.241694
0.26595
0.29132
0.318127
0.346837
0.377983
0.411792
0.447059
0.480828
0.509555
0.531092
0.545393
0.55385
0.558362
0.560594
0.561642
0.562118
0.562329
0.562421
0.562462
0.562481
0.562491
0.562496
0.562499
0.5625
0.5625
0.5625
0.5625
0.5625
0.5625
0.5625
0.142806
0.148296
0.155603
0.164633
0.175387
0.187969
0.202628
0.220039
0.241694
0.271028
0.314766
0.354525
0.394963
0.435784
0.474208
0.506407
0.529971
0.545081
0.55372
0.558254
0.560507
0.561587
0.562089
0.562318
0.562419
0.562464
0.562483
0.562492
0.562495
0.562497
0.562497
0.562499
0.5625
0.5625
0.5625
0.5625
0.5625
0.5625
0.5625
0.5625
0.156392
0.161929
0.169315
0.178518
0.189597
0.202786
0.218667
0.23857
0.26595
0.314766
0.552255
0.557574
0.558933
0.560203
0.56115
0.561762
0.56212
0.562313
0.562411
0.562459
0.562482
0.562492
0.562496
0.562498
0.562499
0.5625
0.5625
0.5625
0.5625
0.5625
0.562499
0.5625
0.5625
0.5625
0.5625
0.5625
0.5625
0.5625
0.5625
0.5625
0.169798
0.175444
0.182976
0.192401
0.203898
0.217883
0.235263
0.258034
0.29132
0.354525
0.557574
0.562413
0.562466
0.562478
0.562487
0.562493
0.562497
0.562498
0.562499
0.5625
0.5625
0.5625
0.5625
0.5625
0.5625
0.5625
0.5625
0.5625
0.5625
0.5625
0.5625
0.5625
0.5625
0.5625
0.5625
0.5625
0.5625
0.5625
0.5625
0.5625
0.182998
0.188799
0.196531
0.206281
0.21834
0.233321
0.252474
0.278476
0.318127
0.394963
0.558933
0.562466
0.562499
0.5625
0.5625
0.5625
0.5625
0.5625
0.5625
0.5625
0.5625
0.5625
0.5625
0.5625
0.5625
0.5625
0.5625
0.5625
0.5625
0.5625
0.5625
0.5625
0.5625
0.5625
0.5625
0.5625
0.5625
0.5625
0.5625
0.5625
0.196007
0.202038
0.210065
0.220259
0.233042
0.24924
0.270474
0.300182
0.346837
0.435784
0.560203
0.562478
0.5625
0.5625
0.5625
0.5625
0.5625
0.5625
0.5625
0.5625
0.5625
0.5625
0.5625
0.5625
0.5625
0.5625
0.5625
0.5625
0.5625
0.5625
0.5625
0.5625
0.5625
0.5625
0.5625
0.5625
0.5625
0.5625
0.5625
0.5625
0.208934
0.215281
0.223709
0.234483
0.248175
0.26584
0.289526
0.323529
0.377983
0.474208
0.56115
0.562487
0.5625
0.5625
0.5625
0.5625
0.5625
0.5625
0.5625
0.5625
0.5625
0.5625
0.5625
0.5625
0.5625
0.5625
0.5625
0.5625
0.5625
0.5625
0.5625
0.5625
0.5625
0.5625
0.5625
0.5625
0.5625
0.5625
0.5625
0.5625
0.221919
0.228684
0.237634
0.249145
0.26395
0.283372
0.30997
0.348832
0.411792
0.506407
0.561762
0.562493
0.5625
0.5625
0.5625
0.5625
0.5625
0.5625
0.5625
0.5625
0.5625
0.5625
0.5625
0.5625
0.5625
0.5625
0.5625
0.5625
0.5625
0.5625
0.5625
0.5625
0.5625
0.5625
0.5625
0.5625
0.5625
0.5625
0.5625
0.5625
0.235134
0.242435
0.252047
0.26447
0.280622
0.302159
0.332168
0.376544
0.447059
0.529971
0.56212
0.562497
0.5625
0.5625
0.5625
0.5625
0.5625
0.5625
0.5625
0.5625
0.5625
0.5625
0.5625
0.5625
0.5625
0.5625
0.5625
0.5625
0.5625
0.5625
0.5625
0.5625
0.5625
0.5625
0.5625
0.5625
0.5625
0.5625
0.5625
0.5625
0.248781
0.256758
0.267189
0.280725
0.298516
0.322577
0.356368
0.406909
0.480828
0.545081
0.562313
0.562498
0.5625
0.5625
0.5625
0.5625
0.5625
0.5625
0.5625
0.5625
0.5625
0.5625
0.5625
0.5625
0.5625
0.5625
0.5625
0.5625
0.5625
0.5625
0.5625
0.5625
0.5625
0.5625
0.5625
0.5625
0.5625
0.5625
0.5625
0.5625
0.263098
0.271915
0.283355
0.298256
0.31802
0.344954
0.382934
0.439187
0.509555
0.55372
0.562411
0.562499
0.5625
0.5625
0.5625
0.5625
0.5625
0.5625
0.5625
0.5625
0.5625
0.5625
0.5625
0.5625
0.5625
0.5625
0.5625
0.5625
0.5625
0.5625
0.5625
0.5625
0.5625
0.5625
0.5625
0.5625
0.5625
0.5625
0.5625
0.5625
0.278372
0.288235
0.300924
0.317476
0.339516
0.369462
0.411999
0.471251
0.531092
0.558254
0.562459
0.5625
0.5625
0.5625
0.5625
0.5625
0.5625
0.5625
0.5625
0.5625
0.5625
0.5625
0.5625
0.5625
0.5625
0.5625
0.5625
0.5625
0.5625
0.5625
0.5625
0.5625
0.5625
0.5625
0.5625
0.5625
0.5625
0.5625
0.5625
0.5625
0.294976
0.306144
0.320349
0.33881
0.363206
0.396433
0.442805
0.500121
0.545393
0.560507
0.562482
0.5625
0.5625
0.5625
0.5625
0.5625
0.5625
0.5625
0.5625
0.5625
0.5625
0.5625
0.5625
0.5625
0.5625
0.5625
0.5625
0.5625
0.5625
0.5625
0.5625
0.5625
0.5625
0.5625
0.5625
0.5625
0.5625
0.5625
0.5625
0.5625
0.31338
0.326145
0.342095
0.362511
0.389357
0.425751
0.473428
0.52339
0.55385
0.561587
0.562492
0.5625
0.5625
0.5625
0.5625
0.5625
0.5625
0.5625
0.5625
0.5625
0.5625
0.5625
0.5625
0.5625
0.5625
0.5625
0.5625
0.5625
0.5625
0.5625
0.5625
0.5625
0.5625
0.5625
0.5625
0.5625
0.5625
0.5625
0.5625
0.5625
0.334122
0.348719
0.366443
0.388868
0.418152
0.456339
0.501272
0.540159
0.558362
0.562089
0.562496
0.5625
0.5625
0.5625
0.5625
0.5625
0.5625
0.5625
0.5625
0.5625
0.5625
0.5625
0.5625
0.5625
0.5625
0.5625
0.5625
0.5625
0.5625
0.5625
0.5625
0.5625
0.5625
0.5625
0.5625
0.5625
0.5625
0.5625
0.5625
0.5625
0.357683
0.374241
0.393856
0.418214
0.448954
0.486104
0.524151
0.550895
0.560594
0.562318
0.562498
0.5625
0.5625
0.5625
0.5625
0.5625
0.5625
0.5625
0.5625
0.5625
0.5625
0.5625
0.5625
0.5625
0.5625
0.5625
0.5625
0.5625
0.5625
0.5625
0.5625
0.5625
0.5625
0.5625
0.5625
0.5625
0.5625
0.5625
0.5625
0.5625
0.384926
0.403488
0.424729
0.450062
0.480021
0.512562
0.540982
0.556956
0.561642
0.562419
0.562499
0.5625
0.5625
0.5625
0.5625
0.5625
0.5625
0.5625
0.5625
0.5625
0.5625
0.5625
0.5625
0.5625
0.5625
0.5625
0.5625
0.5625
0.5625
0.5625
0.5625
0.5625
0.5625
0.5625
0.5625
0.5625
0.5625
0.5625
0.5625
0.5625
0.41686
0.436783
0.458453
0.482654
0.508754
0.533671
0.551825
0.560011
0.562118
0.562464
0.5625
0.5625
0.5625
0.5625
0.5625
0.5625
0.5625
0.5625
0.5625
0.5625
0.5625
0.5625
0.5625
0.5625
0.5625
0.5625
0.5625
0.5625
0.5625
0.5625
0.5625
0.5625
0.5625
0.5625
0.5625
0.5625
0.5625
0.5625
0.5625
0.5625
0.453512
0.472955
0.492712
0.51292
0.532357
0.548272
0.557793
0.561427
0.562329
0.562483
0.5625
0.5625
0.5625
0.5625
0.5625
0.5625
0.5625
0.5625
0.5625
0.5625
0.5625
0.5625
0.5625
0.5625
0.5625
0.5625
0.5625
0.5625
0.5625
0.5625
0.5625
0.5625
0.5625
0.5625
0.5625
0.5625
0.5625
0.5625
0.5625
0.5625
0.492222
0.50824
0.523266
0.53707
0.548621
0.556579
0.560613
0.562048
0.562421
0.562492
0.5625
0.5625
0.5625
0.5625
0.5625
0.5625
0.5625
0.5625
0.5625
0.5625
0.5625
0.5625
0.5625
0.5625
0.5625
0.5625
0.5625
0.5625
0.5625
0.5625
0.5625
0.5625
0.5625
0.5625
0.5625
0.5625
0.5625
0.5625
0.5625
0.5625
0.526387
0.536515
0.545202
0.552246
0.557332
0.560374
0.561797
0.562313
0.562462
0.562495
0.5625
0.5625
0.5625
0.5625
0.5625
0.5625
0.5625
0.5625
0.5625
0.5625
0.5625
0.5625
0.5625
0.5625
0.5625
0.5625
0.5625
0.5625
0.5625
0.5625
0.5625
0.5625
0.5625
0.5625
0.5625
0.5625
0.5625
0.5625
0.5625
0.5625
0.548678
0.553139
0.556653
0.559214
0.560885
0.561819
0.562255
0.562425
0.562481
0.562497
0.5625
0.5625
0.5625
0.5625
0.5625
0.5625
0.5625
0.5625
0.5625
0.5625
0.5625
0.5625
0.5625
0.5625
0.5625
0.5625
0.5625
0.5625
0.5625
0.5625
0.5625
0.5625
0.5625
0.5625
0.5625
0.5625
0.5625
0.5625
0.5625
0.5625
0.558504
0.559875
0.560904
0.561614
0.562058
0.562304
0.562422
0.562472
0.562491
0.562497
0.562499
0.5625
0.5625
0.5625
0.5625
0.5625
0.5625
0.5625
0.5625
0.5625
0.5625
0.5625
0.5625
0.5625
0.5625
0.5625
0.5625
0.5625
0.5625
0.5625
0.5625
0.5625
0.5625
0.5625
0.5625
0.5625
0.5625
0.5625
0.5625
0.5625
0.561558
0.561886
0.562128
0.562292
0.562393
0.56245
0.562478
0.562491
0.562496
0.562499
0.5625
0.5625
0.5625
0.5625
0.5625
0.5625
0.5625
0.5625
0.5625
0.5625
0.5625
0.5625
0.5625
0.5625
0.5625
0.5625
0.5625
0.5625
0.5625
0.5625
0.5625
0.5625
0.5625
0.5625
0.5625
0.5625
0.5625
0.5625
0.5625
0.5625
0.56231
0.562376
0.562425
0.562457
0.562477
0.562489
0.562495
0.562498
0.562499
0.5625
0.5625
0.5625
0.5625
0.5625
0.5625
0.5625
0.5625
0.5625
0.5625
0.5625
0.5625
0.5625
0.5625
0.5625
0.5625
0.5625
0.5625
0.5625
0.5625
0.5625
0.5625
0.5625
0.5625
0.5625
0.5625
0.5625
0.5625
0.5625
0.5625
0.5625
0.562467
0.562478
0.562487
0.562492
0.562496
0.562498
0.562499
0.5625
0.5625
0.5625
0.5625
0.5625
0.5625
0.5625
0.5625
0.5625
0.5625
0.5625
0.5625
0.5625
0.5625
0.5625
0.5625
0.5625
0.5625
0.5625
0.5625
0.5625
0.5625
0.5625
0.5625
0.5625
0.5625
0.5625
0.5625
0.5625
0.5625
0.5625
0.5625
0.5625
0.562495
0.562497
0.562498
0.562499
0.562499
0.5625
0.5625
0.5625
0.5625
0.5625
0.5625
0.5625
0.5625
0.5625
0.5625
0.5625
0.5625
0.5625
0.5625
0.5625
0.5625
0.5625
0.5625
0.5625
0.5625
0.5625
0.5625
0.5625
0.5625
0.5625
0.5625
0.5625
0.5625
0.5625
0.5625
0.5625
0.5625
0.5625
0.5625
0.5625
0.562499
0.5625
0.5625
0.5625
0.5625
0.5625
0.5625
0.5625
0.5625
0.5625
0.5625
0.5625
0.5625
0.5625
0.5625
0.5625
0.5625
0.5625
0.5625
0.5625
0.5625
0.5625
0.5625
0.5625
0.5625
0.5625
0.5625
0.5625
0.5625
0.5625
0.5625
0.5625
0.5625
0.5625
0.5625
0.5625
0.5625
0.5625
0.5625
0.5625
0.5625
0.5625
0.5625
0.5625
0.5625
0.5625
0.5625
0.5625
0.5625
0.5625
0.5625
0.5625
0.5625
0.5625
0.5625
0.5625
0.5625
0.5625
0.5625
0.5625
0.5625
0.5625
0.5625
0.5625
0.5625
0.5625
0.5625
0.5625
0.5625
0.5625
0.5625
0.5625
0.5625
0.5625
0.5625
0.5625
0.5625
0.5625
0.5625
0.5625
0.5625
0.5625
0.5625
0.5625
0.5625
0.5625
0.5625
0.5625
0.5625
0.5625
0.5625
0.5625
0.5625
0.5625
0.5625
0.5625
0.5625
0.5625
0.5625
0.5625
0.5625
0.5625
0.5625
0.5625
0.5625
0.5625
0.5625
0.5625
0.5625
0.5625
0.5625
0.5625
0.5625
0.5625
0.5625
0.5625
0.5625
0.5625
0.5625
0.5625
0.5625
0.5625
0.5625
0.5625
0.5625
0.5625
0.5625
0.5625
0.5625
0.5625
0.5625
0.5625
0.5625
0.5625
0.5625
0.5625
0.5625
0.5625
0.5625
0.5625
0.5625
0.5625
0.5625
0.5625
0.5625
0.5625
0.5625
0.5625
0.5625
0.5625
0.5625
0.5625
0.5625
0.5625
0.5625
0.5625
0.5625
0.5625
0.5625
0.5625
0.5625
0.5625
0.5625
0.5625
0.5625
0.5625
0.5625
0.5625
0.5625
0.5625
0.5625
0.5625
0.5625
0.5625
0.5625
0.5625
0.5625
0.5625
0.5625
0.5625
0.5625
0.5625
0.5625
0.5625
0.5625
0.5625
0.5625
0.5625
0.5625
0.5625
0.5625
0.5625
0.5625
0.5625
0.5625
0.5625
0.5625
0.5625
0.5625
0.5625
0.012612
0.0182475
0.0262156
0.0360141
0.0471388
0.0591655
0.0717663
0.0846461
0.0975388
0.110247
0.122644
0.134662
0.146322
0.157667
0.168692
0.179445
0.189987
0.200385
0.210715
0.221065
0.231542
0.242307
0.253642
0.266176
0.280692
0.298361
0.321426
0.35395
0.401823
0.46552
0.523175
0.551805
0.560267
0.562112
0.562443
0.562493
0.562499
0.5625
0.5625
0.5625
0.018246
0.0240704
0.0320774
0.0417863
0.052761
0.0646326
0.0770977
0.0898545
0.102646
0.115282
0.127636
0.139648
0.15135
0.162755
0.173864
0.184724
0.195394
0.205942
0.216445
0.226991
0.237697
0.248749
0.260514
0.273732
0.289196
0.308309
0.333677
0.369779
0.421806
0.485085
0.534066
0.55517
0.560994
0.562239
0.562462
0.562495
0.5625
0.5625
0.5625
0.5625
0.0262176
0.0320754
0.0399988
0.0495232
0.0602668
0.0719192
0.0841771
0.0967483
0.10939
0.121917
0.134205
0.146203
0.157948
0.1694
0.180574
0.191515
0.202281
0.212938
0.223563
0.234252
0.245144
0.256492
0.268861
0.282935
0.299635
0.320675
0.34911
0.389684
0.445558
0.505142
0.543467
0.557812
0.561546
0.562334
0.562476
0.562497
0.5625
0.5625
0.5625
0.5625
0.036013
0.0417856
0.0495236
0.0588003
0.0692888
0.0806935
0.0927163
0.105087
0.11758
0.130012
0.142259
0.154301
0.166102
0.177619
0.188872
0.199901
0.210764
0.221528
0.232278
0.243136
0.25431
0.26625
0.279558
0.294896
0.313478
0.337427
0.370256
0.416252
0.473816
0.524498
0.550981
0.559741
0.561938
0.562401
0.562485
0.562498
0.5625
0.5625
0.5625
0.5625
0.0471385
0.0527616
0.0602677
0.0692892
0.0795197
0.0906694
0.102468
0.114673
0.12707
0.139479
0.151797
0.163973
0.175894
0.187538
0.198921
0.210086
0.221096
0.232032
0.243017
0.254255
0.266178
0.279279
0.294108
0.311626
0.333452
0.36219
0.40135
0.452255
0.505092
0.541033
0.556358
0.561028
0.562194
0.562445
0.562492
0.562499
0.5625
0.5625
0.5625
0.5625
0.0591656
0.0646334
0.0719201
0.080694
0.0906695
0.101589
0.113219
0.125344
0.137766
0.150323
0.162919
0.175361
0.18754
0.199433
0.211063
0.222489
0.233803
0.24515
0.256783
0.269163
0.282668
0.297852
0.315621
0.337398
0.365292
0.40185
0.447816
0.49647
0.533574
0.552614
0.559666
0.561792
0.562346
0.562471
0.562496
0.562499
0.5625
0.5625
0.5625
0.5625
0.0717665
0.0770984
0.0841778
0.0927167
0.102469
0.113219
0.124778
0.136972
0.149646
0.162695
0.175856
0.188839
0.201524
0.213902
0.226038
0.238058
0.250174
0.26278
0.276242
0.290983
0.307687
0.327387
0.351564
0.382051
0.420135
0.463904
0.505588
0.535715
0.551941
0.558842
0.561363
0.56219
0.562428
0.562486
0.562498
0.5625
0.5625
0.5625
0.5625
0.5625
0.0846462
0.0898549
0.0967487
0.105088
0.114673
0.125344
0.136972
0.149468
0.162821
0.17686
0.191195
0.205275
0.218981
0.232411
0.245795
0.259538
0.274024
0.289675
0.307165
0.327485
0.351991
0.382228
0.418972
0.460082
0.499091
0.528709
0.546623
0.555644
0.559683
0.561389
0.562093
0.562374
0.562468
0.562493
0.562499
0.5625
0.5625
0.5625
0.5625
0.5625
0.0975388
0.102646
0.10939
0.11758
0.127071
0.137766
0.149646
0.162821
0.177396
0.193445
0.210648
0.227202
0.24336
0.259706
0.276804
0.295186
0.315666
0.339416
0.367884
0.402157
0.441368
0.481004
0.514313
0.537162
0.550277
0.556885
0.55996
0.561335
0.561945
0.562225
0.562367
0.562451
0.562486
0.562497
0.5625
0.5625
0.5625
0.5625
0.5625
0.5625
0.110247
0.115282
0.121918
0.130012
0.139479
0.150323
0.162695
0.17686
0.193445
0.214087
0.24234
0.266264
0.290454
0.31645
0.34553
0.3788
0.416354
0.455875
0.492373
0.520975
0.540102
0.551296
0.55719
0.560067
0.561402
0.562003
0.562267
0.562382
0.562432
0.562452
0.562461
0.562482
0.562495
0.562499
0.5625
0.5625
0.5625
0.5625
0.5625
0.5625
0.122643
0.127636
0.134205
0.142259
0.151797
0.162919
0.175856
0.191195
0.210648
0.24234
0.539767
0.548806
0.550286
0.552611
0.55513
0.557449
0.559333
0.560681
0.561533
0.562017
0.562271
0.562395
0.562453
0.56248
0.562491
0.562496
0.562498
0.562499
0.562499
0.562499
0.562485
0.562494
0.562498
0.5625
0.5625
0.5625
0.5625
0.5625
0.5625
0.5625
0.134662
0.139648
0.146203
0.154301
0.163973
0.175361
0.188839
0.205275
0.227202
0.266265
0.548806
0.562154
0.562336
0.562373
0.562411
0.562444
0.562468
0.562483
0.562491
0.562496
0.562498
0.562499
0.5625
0.5625
0.5625
0.5625
0.5625
0.5625
0.5625
0.5625
0.562495
0.562498
0.562499
0.5625
0.5625
0.5625
0.5625
0.5625
0.5625
0.5625
0.146322
0.15135
0.157948
0.166102
0.175894
0.18754
0.201524
0.218981
0.24336
0.290454
0.550286
0.562336
0.562497
0.562499
0.562499
0.5625
0.5625
0.5625
0.5625
0.5625
0.5625
0.5625
0.5625
0.5625
0.5625
0.5625
0.5625
0.5625
0.5625
0.5625
0.562498
0.562499
0.5625
0.5625
0.5625
0.5625
0.5625
0.5625
0.5625
0.5625
0.157667
0.162755
0.1694
0.177619
0.187538
0.199433
0.213902
0.232411
0.259706
0.31645
0.552611
0.562373
0.562499
0.5625
0.5625
0.5625
0.5625
0.5625
0.5625
0.5625
0.5625
0.5625
0.5625
0.5625
0.5625
0.5625
0.5625
0.5625
0.5625
0.5625
0.5625
0.5625
0.5625
0.5625
0.5625
0.5625
0.5625
0.5625
0.5625
0.5625
0.168692
0.173864
0.180574
0.188872
0.198921
0.211063
0.226038
0.245795
0.276804
0.34553
0.55513
0.562411
0.562499
0.5625
0.5625
0.5625
0.5625
0.5625
0.5625
0.5625
0.5625
0.5625
0.5625
0.5625
0.5625
0.5625
0.5625
0.5625
0.5625
0.5625
0.5625
0.5625
0.5625
0.5625
0.5625
0.5625
0.5625
0.5625
0.5625
0.5625
0.179445
0.184724
0.191515
0.199901
0.210086
0.222489
0.238058
0.259538
0.295186
0.3788
0.557449
0.562444
0.5625
0.5625
0.5625
0.5625
0.5625
0.5625
0.5625
0.5625
0.5625
0.5625
0.5625
0.5625
0.5625
0.5625
0.5625
0.5625
0.5625
0.5625
0.5625
0.5625
0.5625
0.5625
0.5625
0.5625
0.5625
0.5625
0.5625
0.5625
0.189987
0.195394
0.202281
0.210764
0.221096
0.233803
0.250174
0.274024
0.315666
0.416354
0.559333
0.562468
0.5625
0.5625
0.5625
0.5625
0.5625
0.5625
0.5625
0.5625
0.5625
0.5625
0.5625
0.5625
0.5625
0.5625
0.5625
0.5625
0.5625
0.5625
0.5625
0.5625
0.5625
0.5625
0.5625
0.5625
0.5625
0.5625
0.5625
0.5625
0.200385
0.205942
0.212938
0.221527
0.232032
0.24515
0.26278
0.289675
0.339416
0.455875
0.560681
0.562483
0.5625
0.5625
0.5625
0.5625
0.5625
0.5625
0.5625
0.5625
0.5625
0.5625
0.5625
0.5625
0.5625
0.5625
0.5625
0.5625
0.5625
0.5625
0.5625
0.5625
0.5625
0.5625
0.5625
0.5625
0.5625
0.5625
0.5625
0.5625
0.210715
0.216445
0.223563
0.232278
0.243017
0.256783
0.276242
0.307165
0.367884
0.492373
0.561533
0.562491
0.5625
0.5625
0.5625
0.5625
0.5625
0.5625
0.5625
0.5625
0.5625
0.5625
0.5625
0.5625
0.5625
0.5625
0.5625
0.5625
0.5625
0.5625
0.5625
0.5625
0.5625
0.5625
0.5625
0.5625
0.5625
0.5625
0.5625
0.5625
0.221065
0.226991
0.234252
0.243136
0.254255
0.269163
0.290983
0.327485
0.402157
0.520975
0.562017
0.562496
0.5625
0.5625
0.5625
0.5625
0.5625
0.5625
0.5625
0.5625
0.5625
0.5625
0.5625
0.5625
0.5625
0.5625
0.5625
0.5625
0.5625
0.5625
0.5625
0.5625
0.5625
0.5625
0.5625
0.5625
0.5625
0.5625
0.5625
0.5625
0.231542
0.237697
0.245144
0.25431
0.266177
0.282668
0.307686
0.351991
0.441368
0.540102
0.562271
0.562498
0.5625
0.5625
0.5625
0.5625
0.5625
0.5625
0.5625
0.5625
0.5625
0.5625
0.5625
0.5625
0.5625
0.5625
0.5625
0.5625
0.5625
0.5625
0.5625
0.5625
0.5625
0.5625
0.5625
0.5625
0.5625
0.5625
0.5625
0.5625
0.242307
0.248749
0.256492
0.26625
0.279279
0.297852
0.327387
0.382228
0.481004
0.551296
0.562395
0.562499
0.5625
0.5625
0.5625
0.5625
0.5625
0.5625
0.5625
0.5625
0.5625
0.5625
0.5625
0.5625
0.5625
0.5625
0.5625
0.5625
0.5625
0.5625
0.5625
0.5625
0.5625
0.5625
0.5625
0.5625
0.5625
0.5625
0.5625
0.5625
0.253642
0.260514
0.268861
0.279558
0.294108
0.315621
0.351564
0.418972
0.514313
0.55719
0.562453
0.5625
0.5625
0.5625
0.5625
0.5625
0.5625
0.5625
0.5625
0.5625
0.5625
0.5625
0.5625
0.5625
0.5625
0.5625
0.5625
0.5625
0.5625
0.5625
0.5625
0.5625
0.5625
0.5625
0.5625
0.5625
0.5625
0.5625
0.5625
0.5625
0.266176
0.273732
0.282935
0.294896
0.311626
0.337398
0.38205
0.460082
0.537162
0.560067
0.56248
0.5625
0.5625
0.5625
0.5625
0.5625
0.5625
0.5625
0.5625
0.5625
0.5625
0.5625
0.5625
0.5625
0.5625
0.5625
0.5625
0.5625
0.5625
0.5625
0.5625
0.5625
0.5625
0.5625
0.5625
0.5625
0.5625
0.5625
0.5625
0.5625
0.280692
0.289196
0.299635
0.313478
0.333452
0.365292
0.420134
0.499091
0.550277
0.561402
0.562491
0.5625
0.5625
0.5625
0.5625
0.5625
0.5625
0.5625
0.5625
0.5625
0.5625
0.5625
0.5625
0.5625
0.5625
0.5625
0.5625
0.5625
0.5625
0.5625
0.5625
0.5625
0.5625
0.5625
0.5625
0.5625
0.5625
0.5625
0.5625
0.5625
0.298361
0.308309
0.320675
0.337427
0.362189
0.40185
0.463904
0.528709
0.556885
0.562003
0.562496
0.5625
0.5625
0.5625
0.5625
0.5625
0.5625
0.5625
0.5625
0.5625
0.5625
0.5625
0.5625
0.5625
0.5625
0.5625
0.5625
0.5625
0.5625
0.5625
0.5625
0.5625
0.5625
0.5625
0.5625
0.5625
0.5625
0.5625
0.5625
0.5625
0.321426
0.333677
0.34911
0.370256
0.401349
0.447816
0.505588
0.546623
0.55996
0.562267
0.562498
0.5625
0.5625
0.5625
0.5625
0.5625
0.5625
0.5625
0.5625
0.5625
0.5625
0.5625
0.5625
0.5625
0.5625
0.5625
0.5625
0.5625
0.5625
0.5625
0.5625
0.5625
0.5625
0.5625
0.5625
0.5625
0.5625
0.5625
0.5625
0.5625
0.35395
0.369779
0.389684
0.416252
0.452255
0.49647
0.535715
0.555644
0.561335
0.562382
0.562499
0.5625
0.5625
0.5625
0.5625
0.5625
0.5625
0.5625
0.5625
0.5625
0.5625
0.5625
0.5625
0.5625
0.5625
0.5625
0.5625
0.5625
0.5625
0.5625
0.5625
0.5625
0.5625
0.5625
0.5625
0.5625
0.5625
0.5625
0.5625
0.5625
0.401823
0.421806
0.445558
0.473816
0.505092
0.533574
0.551941
0.559683
0.561945
0.562432
0.562499
0.5625
0.5625
0.5625
0.5625
0.5625
0.5625
0.5625
0.5625
0.5625
0.5625
0.5625
0.5625
0.5625
0.5625
0.5625
0.5625
0.5625
0.5625
0.5625
0.5625
0.5625
0.5625
0.5625
0.5625
0.5625
0.5625
0.5625
0.5625
0.5625
0.46552
0.485085
0.505142
0.524498
0.541033
0.552614
0.558842
0.561389
0.562225
0.562452
0.562499
0.5625
0.5625
0.5625
0.5625
0.5625
0.5625
0.5625
0.5625
0.5625
0.5625
0.5625
0.5625
0.5625
0.5625
0.5625
0.5625
0.5625
0.5625
0.5625
0.5625
0.5625
0.5625
0.5625
0.5625
0.5625
0.5625
0.5625
0.5625
0.5625
0.523175
0.534066
0.543467
0.550981
0.556358
0.559666
0.561363
0.562093
0.562367
0.562461
0.562485
0.562495
0.562498
0.5625
0.5625
0.5625
0.5625
0.5625
0.5625
0.5625
0.5625
0.5625
0.5625
0.5625
0.5625
0.5625
0.5625
0.5625
0.5625
0.5625
0.5625
0.5625
0.5625
0.5625
0.5625
0.5625
0.5625
0.5625
0.5625
0.5625
0.551805
0.55517
0.557812
0.559741
0.561028
0.561792
0.56219
0.562374
0.562451
0.562482
0.562494
0.562498
0.562499
0.5625
0.5625
0.5625
0.5625
0.5625
0.5625
0.5625
0.5625
0.5625
0.5625
0.5625
0.5625
0.5625
0.5625
0.5625
0.5625
0.5625
0.5625
0.5625
0.5625
0.5625
0.5625
0.5625
0.5625
0.5625
0.5625
0.5625
0.560267
0.560994
0.561546
0.561938
0.562194
0.562346
0.562428
0.562468
0.562486
0.562495
0.562498
0.562499
0.5625
0.5625
0.5625
0.5625
0.5625
0.5625
0.5625
0.5625
0.5625
0.5625
0.5625
0.5625
0.5625
0.5625
0.5625
0.5625
0.5625
0.5625
0.5625
0.5625
0.5625
0.5625
0.5625
0.5625
0.5625
0.5625
0.5625
0.5625
0.562112
0.562239
0.562334
0.562401
0.562445
0.562471
0.562486
0.562493
0.562497
0.562499
0.5625
0.5625
0.5625
0.5625
0.5625
0.5625
0.5625
0.5625
0.5625
0.5625
0.5625
0.5625
0.5625
0.5625
0.5625
0.5625
0.5625
0.5625
0.5625
0.5625
0.5625
0.5625
0.5625
0.5625
0.5625
0.5625
0.5625
0.5625
0.5625
0.5625
0.562443
0.562462
0.562476
0.562485
0.562492
0.562496
0.562498
0.562499
0.5625
0.5625
0.5625
0.5625
0.5625
0.5625
0.5625
0.5625
0.5625
0.5625
0.5625
0.5625
0.5625
0.5625
0.5625
0.5625
0.5625
0.5625
0.5625
0.5625
0.5625
0.5625
0.5625
0.5625
0.5625
0.5625
0.5625
0.5625
0.5625
0.5625
0.5625
0.5625
0.562493
0.562495
0.562497
0.562498
0.562499
0.562499
0.5625
0.5625
0.5625
0.5625
0.5625
0.5625
0.5625
0.5625
0.5625
0.5625
0.5625
0.5625
0.5625
0.5625
0.5625
0.5625
0.5625
0.5625
0.5625
0.5625
0.5625
0.5625
0.5625
0.5625
0.5625
0.5625
0.5625
0.5625
0.5625
0.5625
0.5625
0.5625
0.5625
0.5625
0.562499
0.5625
0.5625
0.5625
0.5625
0.5625
0.5625
0.5625
0.5625
0.5625
0.5625
0.5625
0.5625
0.5625
0.5625
0.5625
0.5625
0.5625
0.5625
0.5625
0.5625
0.5625
0.5625
0.5625
0.5625
0.5625
0.5625
0.5625
0.5625
0.5625
0.5625
0.5625
0.5625
0.5625
0.5625
0.5625
0.5625
0.5625
0.5625
0.5625
0.5625
0.5625
0.5625
0.5625
0.5625
0.5625
0.5625
0.5625
0.5625
0.5625
0.5625
0.5625
0.5625
0.5625
0.5625
0.5625
0.5625
0.5625
0.5625
0.5625
0.5625
0.5625
0.5625
0.5625
0.5625
0.5625
0.5625
0.5625
0.5625
0.5625
0.5625
0.5625
0.5625
0.5625
0.5625
0.5625
0.5625
0.5625
0.5625
0.5625
0.5625
0.5625
0.5625
0.5625
0.5625
0.5625
0.5625
0.5625
0.5625
0.5625
0.5625
0.5625
0.5625
0.5625
0.5625
0.5625
0.5625
0.5625
0.5625
0.5625
0.5625
0.5625
0.5625
0.5625
0.5625
0.5625
0.5625
0.5625
0.5625
0.5625
0.5625
0.5625
0.5625
0.5625
0.5625
0.5625
0.5625
0.5625
0.5625
0.5625
0.5625
0.5625
0.5625
0.5625
0.5625
0.5625
0.5625
0.5625
0.5625
0.5625
0.5625
0.5625
0.5625
0.5625
0.5625
0.5625
0.5625
0.5625
0.5625
0.5625
0.5625
0.5625
0.5625
0.5625
0.5625
0.5625
0.5625
0.5625
0.5625
0.5625
0.5625
0.5625
0.5625
0.5625
0.5625
0.5625
0.5625
0.5625
0.5625
0.5625
0.00331691
0.00716398
0.0135328
0.022105
0.032345
0.0437115
0.0557486
0.0681316
0.080609
0.0929559
0.105016
0.1167
0.127972
0.138838
0.149348
0.159535
0.169453
0.179172
0.188771
0.198346
0.208016
0.217939
0.228344
0.239537
0.251949
0.266291
0.283801
0.306793
0.339687
0.389834
0.459893
0.523634
0.553046
0.560771
0.562242
0.562469
0.562497
0.5625
0.5625
0.5625
0.00716099
0.0117794
0.0186258
0.0273891
0.0376356
0.048916
0.0608469
0.0731438
0.0855446
0.0978281
0.109842
0.121497
0.132756
0.143632
0.154165
0.164386
0.174352
0.184134
0.193814
0.203493
0.213298
0.2234
0.234051
0.245568
0.258426
0.273412
0.291927
0.3166
0.352392
0.406643
0.477336
0.533138
0.55571
0.561278
0.562319
0.562478
0.562498
0.5625
0.5625
0.5625
0.0135368
0.0186246
0.0257607
0.0345948
0.0447535
0.0558703
0.0676394
0.0797933
0.0920659
0.104244
0.116177
0.127773
0.138992
0.149856
0.160383
0.170608
0.180592
0.190406
0.200139
0.209898
0.219824
0.230113
0.241027
0.2529
0.266266
0.282019
0.301773
0.328575
0.36801
0.42669
0.495696
0.541649
0.557894
0.561682
0.562379
0.562485
0.562499
0.5625
0.5625
0.5625
0.0221049
0.0273864
0.0345937
0.0433592
0.0533494
0.0642696
0.0758627
0.0878533
0.0999881
0.112061
0.123921
0.135469
0.146667
0.157524
0.168046
0.178278
0.188282
0.198137
0.207941
0.217816
0.227927
0.238494
0.249773
0.262149
0.276238
0.293091
0.314623
0.344439
0.388675
0.451329
0.514413
0.548857
0.559588
0.561986
0.562424
0.562491
0.562499
0.5625
0.5625
0.5625
0.0323437
0.0376332
0.0447522
0.053349
0.0631354
0.0738681
0.0852866
0.0971309
0.109165
0.121188
0.133036
0.144596
0.155836
0.166729
0.177294
0.18758
0.197661
0.20763
0.217604
0.227734
0.238211
0.249247
0.261152
0.274387
0.289706
0.308409
0.332866
0.367364
0.417699
0.481153
0.532028
0.554473
0.560809
0.562199
0.562455
0.562494
0.562499
0.5625
0.5625
0.5625
0.0437105
0.0489144
0.0558693
0.0642692
0.0738679
0.0844246
0.0956991
0.107461
0.119493
0.131592
0.143569
0.155294
0.16669
0.17773
0.188449
0.198917
0.209227
0.219501
0.229896
0.240576
0.25175
0.263695
0.276815
0.291733
0.309468
0.331759
0.361612
0.40344
0.458781
0.513582
0.546292
0.558342
0.561607
0.562337
0.562475
0.562497
0.5625
0.5625
0.5625
0.5625
0.0557479
0.0608459
0.0676387
0.0758623
0.0852865
0.095699
0.106901
0.118703
0.130918
0.143337
0.155734
0.167881
0.179661
0.191079
0.202202
0.21314
0.224035
0.235041
0.246337
0.258151
0.270786
0.284674
0.300461
0.319149
0.342306
0.372281
0.411727
0.460292
0.508175
0.540599
0.555453
0.560607
0.56207
0.562418
0.562487
0.562498
0.5625
0.5625
0.5625
0.5625
0.0681312
0.0731431
0.0797928
0.087853
0.0971308
0.107461
0.118703
0.130738
0.143445
0.15666
0.170063
0.183136
0.195778
0.208072
0.22017
0.232249
0.24449
0.257123
0.270444
0.284866
0.30099
0.319698
0.34227
0.370407
0.405649
0.447308
0.489676
0.523767
0.544876
0.555373
0.559923
0.561721
0.562308
0.562461
0.562494
0.562499
0.5625
0.5625
0.5625
0.5625
0.0806087
0.0855442
0.0920656
0.0999878
0.109165
0.119493
0.130918
0.143445
0.157156
0.172144
0.188068
0.203251
0.21788
0.232301
0.246816
0.261716
0.277346
0.294199
0.313006
0.334821
0.361028
0.392954
0.430575
0.470464
0.505935
0.531606
0.54701
0.555042
0.558905
0.560738
0.561665
0.562201
0.562419
0.562483
0.562497
0.5625
0.5625
0.5625
0.5625
0.5625
0.0929557
0.0978278
0.104244
0.112061
0.121187
0.131592
0.143337
0.15666
0.172144
0.191191
0.216569
0.237469
0.257794
0.278719
0.30105
0.325612
0.35329
0.384808
0.420013
0.456778
0.490911
0.518385
0.537661
0.549592
0.556175
0.559484
0.561047
0.561757
0.56207
0.562202
0.562258
0.562392
0.562468
0.562493
0.562499
0.5625
0.5625
0.5625
0.5625
0.5625
0.105016
0.109841
0.116176
0.123921
0.133036
0.143569
0.155734
0.170063
0.188068
0.216569
0.533521
0.543665
0.544539
0.546708
0.54944
0.55231
0.555038
0.557414
0.559294
0.560631
0.561484
0.561981
0.562248
0.562383
0.562446
0.562475
0.562488
0.562494
0.562496
0.562496
0.562407
0.562462
0.562489
0.562498
0.5625
0.5625
0.5625
0.5625
0.5625
0.5625
0.1167
0.121496
0.127773
0.135469
0.144596
0.155294
0.16788
0.183136
0.203251
0.237469
0.543665
0.561921
0.5622
0.562242
0.562299
0.562355
0.562404
0.562441
0.562466
0.562482
0.562491
0.562496
0.562498
0.562499
0.5625
0.5625
0.5625