/*--------------------------------*- C++ -*----------------------------------*\
| =========                 |                                                 |
| \\      /  F ield         | OpenFOAM: The Open Source CFD Toolbox           |
|  \\    /   O peration     | Version:  2.1.0                                 |
|   \\  /    A nd           | Web:      www.OpenFOAM.org                      |
|    \\/     M anipulation  |                                                 |
\*---------------------------------------------------------------------------*/
FoamFile
{
    version     2.0;
    format      ascii;
    class       volScalarField;
    location    "12045";
    object      kr_w;
}
// * * * * * * * * * * * * * * * * * * * * * * * * * * * * * * * * * * * * * //

dimensions      [0 0 0 0 0 0 0];

internalField   nonuniform List<scalar> 
8000
(
0.32304
0.300341
0.274817
0.249536
0.225773
0.203965
0.184227
0.166506
0.150667
0.136527
0.123891
0.11256
0.102378
0.093191
0.0848151
0.0770917
0.0698842
0.0630779
0.0565794
0.0503015
0.0441628
0.0380998
0.0320894
0.0261812
0.0203908
0.0147932
0.00965789
0.00542208
0.00247936
0.000882295
0.000247231
5.77177e-05
1.15917e-05
2.00529e-06
2.94375e-07
3.57191e-08
3.44113e-09
2.46796e-10
1.17131e-11
2.76236e-13
0.300342
0.28111
0.259025
0.23661
0.215082
0.195001
0.176589
0.159884
0.14482
0.131272
0.119082
0.108093
0.0981822
0.0891938
0.0809571
0.0733234
0.0661657
0.0593801
0.0528778
0.0465737
0.0403963
0.0343051
0.0283226
0.02254
0.0169959
0.0118494
0.00739597
0.00396066
0.00172535
0.000589073
0.000161741
3.75975e-05
7.56744e-06
1.31515e-06
1.94121e-07
2.36868e-08
2.2941e-09
1.6532e-10
7.87911e-12
1.86487e-13
0.274816
0.259028
0.240436
0.221058
0.202015
0.183914
0.167057
0.15156
0.137427
0.124592
0.11295
0.102394
0.092837
0.0841157
0.0760782
0.0685904
0.0615399
0.0548347
0.0483876
0.0421225
0.0359888
0.0299875
0.0242059
0.0187062
0.0135844
0.00905545
0.00537504
0.0027219
0.00111661
0.000363896
9.80343e-05
2.27656e-05
4.61256e-06
8.09163e-07
1.2062e-07
1.48544e-08
1.45022e-09
1.052e-10
5.0406e-12
1.19942e-13
0.249537
0.236609
0.221058
0.204453
0.187778
0.171628
0.156337
0.142073
0.128897
0.1168
0.105732
0.0956579
0.0864763
0.0780429
0.0702244
0.0629047
0.0559893
0.04939
0.0430277
0.0368474
0.0308403
0.0250784
0.019635
0.0145808
0.0100905
0.00637111
0.00356169
0.00168548
0.000647137
0.00020288
5.42839e-05
1.27328e-05
2.62207e-06
4.67998e-07
7.08772e-08
8.84533e-09
8.72645e-10
6.37977e-11
3.07398e-12
7.3486e-14
0.225773
0.215082
0.202015
0.187778
0.173199
0.158817
0.144967
0.131846
0.119556
0.108137
0.0976176
0.0879934
0.0791548
0.0709834
0.0633672
0.0562123
0.0494297
0.0429388
0.0366837
0.0306556
0.0249226
0.0195426
0.0145905
0.0102314
0.00664286
0.00391622
0.00202895
0.00088613
0.000320954
9.92094e-05
2.70188e-05
6.532e-06
1.38848e-06
2.54894e-07
3.94892e-08
5.01271e-09
5.00434e-10
3.68651e-11
1.78416e-12
4.28361e-14
0.203966
0.195002
0.183915
0.171628
0.158817
0.145951
0.133342
0.121195
0.109638
0.0987727
0.0887094
0.0794219
0.0708362
0.0628597
0.0554048
0.0483815
0.0417085
0.035334
0.0292602
0.0235509
0.018238
0.0134318
0.0093108
0.00602205
0.00359182
0.00193216
0.000909399
0.000368604
0.000130793
4.16704e-05
1.19955e-05
3.07529e-06
6.87781e-07
1.31334e-07
2.09273e-08
2.7062e-09
2.73142e-10
2.02275e-11
9.80338e-13
2.35978e-14
0.184227
0.176589
0.167058
0.156337
0.144968
0.133342
0.121736
0.110338
0.0993015
0.0888118
0.0789642
0.069817
0.0613414
0.0534678
0.0461038
0.0391685
0.0326217
0.0264873
0.0207801
0.0155717
0.0110327
0.00734438
0.00457761
0.00265265
0.00140811
0.000674624
0.000291872
0.000115992
4.30672e-05
1.49792e-05
4.78332e-06
1.34354e-06
3.21872e-07
6.44116e-08
1.0568e-08
1.38881e-09
1.41135e-10
1.04564e-11
5.0507e-13
1.21387e-14
0.166507
0.159885
0.151561
0.142073
0.131847
0.121195
0.110338
0.0994386
0.0886762
0.0781695
0.0681113
0.0588067
0.0502609
0.0423726
0.0350571
0.0282949
0.022064
0.0164139
0.0115194
0.00758283
0.00468224
0.00271211
0.00146587
0.000735539
0.000344683
0.000153294
6.57979e-05
2.76314e-05
1.14317e-05
4.61352e-06
1.73729e-06
5.5314e-07
1.43689e-07
3.01366e-08
5.06459e-09
6.71721e-10
6.82482e-11
5.02579e-12
2.40566e-13
5.77245e-15
0.150667
0.144821
0.137427
0.128898
0.119556
0.109638
0.0993015
0.0886763
0.0777575
0.0665347
0.055358
0.045457
0.0366516
0.0287884
0.0217702
0.0156055
0.0104749
0.00655913
0.00384727
0.00212298
0.00110359
0.000543153
0.00025612
0.000117157
5.25364e-05
2.3373e-05
1.04812e-05
4.83238e-06
2.33207e-06
1.17426e-06
5.78187e-07
2.16747e-07
6.11924e-08
1.33224e-08
2.26779e-09
3.00662e-10
3.03108e-11
2.20549e-12
1.04193e-13
2.47663e-15
0.136528
0.131272
0.124592
0.1168
0.108137
0.0987728
0.0888118
0.0781696
0.0665347
0.0532405
0.0376722
0.0269214
0.0185041
0.0119881
0.00725988
0.00412025
0.00220693
0.00112485
0.00055152
0.000262901
0.000122515
5.59483e-05
2.51199e-05
1.11481e-05
4.93261e-06
2.20852e-06
1.02639e-06
5.16217e-07
2.98315e-07
2.09374e-07
1.73011e-07
8.00854e-08
2.42521e-08
5.38998e-09
9.19472e-10
1.2114e-10
1.20793e-11
8.66991e-13
4.04833e-14
9.62075e-16
0.123891
0.119082
0.11295
0.105732
0.0976177
0.0887095
0.0789642
0.0681114
0.055358
0.0376722
0.000646556
0.000305693
0.000220395
0.000141342
8.28221e-05
4.5181e-05
2.32656e-05
1.1442e-05
5.43129e-06
2.50724e-06
1.13043e-06
4.99589e-07
2.17492e-07
9.39582e-08
4.07585e-08
1.81091e-08
8.52465e-09
4.5084e-09
2.95919e-09
2.79668e-09
6.88088e-08
2.88892e-08
8.60526e-09
1.91713e-09
3.27565e-10
4.30238e-11
4.25796e-12
3.02479e-13
1.40406e-14
2.85765e-16
0.11256
0.108093
0.102394
0.095658
0.0879935
0.0794219
0.0698171
0.0588067
0.045457
0.0269213
0.000305693
5.31396e-06
2.06139e-06
1.32046e-06
7.65906e-07
4.10822e-07
2.07509e-07
1.00023e-07
4.64711e-08
2.09495e-08
9.20752e-09
3.96475e-09
1.68329e-09
7.11137e-10
3.032e-10
1.33441e-10
6.28989e-11
3.37239e-11
2.25151e-11
2.02094e-11
2.34363e-08
9.44874e-09
2.75932e-09
6.10749e-10
1.04062e-10
1.36161e-11
1.33914e-12
9.44357e-14
4.43253e-15
7.62039e-17
0.102378
0.0981823
0.0928371
0.0864764
0.0791549
0.0708362
0.0613415
0.0502609
0.0366516
0.0185041
0.000220395
2.0614e-06
3.13553e-08
1.05063e-08
6.07517e-09
3.24628e-09
1.62413e-09
7.72425e-10
3.52862e-10
1.55933e-10
6.70403e-11
2.82096e-11
1.17046e-11
4.83819e-12
2.0227e-12
8.75021e-13
4.05741e-13
2.12707e-13
1.3511e-13
1.05711e-13
7.18579e-09
2.83635e-09
8.13786e-10
1.7819e-10
3.01412e-11
3.91798e-12
3.82645e-13
2.69063e-14
1.27959e-15
0
0.093191
0.0891939
0.0841158
0.078043
0.0709834
0.0628598
0.0534678
0.0423726
0.0287884
0.0119881
0.000141342
1.32046e-06
1.05064e-08
1.43735e-10
4.29398e-11
2.27673e-11
1.13412e-11
5.34288e-12
2.40711e-12
1.04523e-12
4.40576e-13
1.81559e-13
7.36987e-14
2.9837e-14
1.22149e-14
5.15012e-15
2.30517e-15
1.09543e-15
6.09631e-16
3.90545e-16
2.04348e-09
7.94588e-10
2.24231e-10
4.84569e-11
8.11042e-12
1.04452e-12
1.0124e-13
7.18222e-15
3.07991e-16
0
0.0848152
0.0809572
0.0760783
0.0702245
0.0633673
0.0554048
0.0461038
0.0350571
0.0217702
0.00725987
8.28221e-05
7.65906e-07
6.07517e-09
4.29398e-11
5.37015e-13
1.46242e-13
7.20127e-14
3.37742e-14
1.50185e-14
6.40113e-15
2.62904e-15
9.6525e-16
2.60363e-16
1.20656e-16
0
0
0
0
0
0
5.48623e-10
2.10513e-10
5.84402e-11
1.2446e-11
2.05686e-12
2.62056e-13
2.52838e-14
1.84159e-15
5.39778e-17
0
0.0770918
0.0733234
0.0685905
0.0629047
0.0562124
0.0483815
0.0391685
0.0282949
0.0156055
0.00412025
4.5181e-05
4.10822e-07
3.24628e-09
2.27673e-11
1.46242e-13
1.56853e-15
1.27007e-16
1.20656e-16
0
0
0
0
0
0
0
0
0
0
0
0
1.4058e-10
5.32491e-11
1.45405e-11
3.04949e-12
4.97189e-13
6.27508e-14
6.08679e-15
4.28647e-16
0
0
0.0698843
0.0661657
0.0615399
0.0559893
0.0494298
0.0417086
0.0326217
0.022064
0.0104749
0.00220693
2.32656e-05
2.07509e-07
1.62413e-09
1.13412e-11
7.20127e-14
1.27007e-16
0
0
0
0
0
0
0
0
0
0
0
0
0
0
3.46217e-11
1.29465e-11
3.47768e-12
7.18311e-13
1.15652e-13
1.45835e-14
1.44787e-15
8.57294e-17
0
0
0.063078
0.0593801
0.0548348
0.04939
0.0429388
0.0353341
0.0264874
0.0164139
0.00655913
0.00112485
1.1442e-05
1.00023e-07
7.72425e-10
5.34288e-12
3.37742e-14
1.20656e-16
0
0
0
0
0
0
0
0
0
0
0
0
0
0
8.23253e-12
3.03985e-12
8.0378e-13
1.6374e-13
2.61919e-14
3.37202e-15
3.07991e-16
0
0
0
0.0565794
0.0528779
0.0483877
0.0430278
0.0366837
0.0292602
0.0207802
0.0115194
0.00384727
0.00055152
5.43129e-06
4.64711e-08
3.52862e-10
2.40711e-12
1.50185e-14
0
0
0
0
0
0
0
0
0
0
0
0
0
0
0
1.89585e-12
6.91713e-13
1.80387e-13
3.64572e-14
5.90263e-15
7.8109e-16
3.49268e-17
0
0
0
0.0503015
0.0465738
0.0421225
0.0368475
0.0306556
0.023551
0.0155717
0.00758283
0.00212298
0.000262901
2.50724e-06
2.09495e-08
1.55933e-10
1.04523e-12
6.40113e-15
0
0
0
0
0
0
0
0
0
0
0
0
0
0
0
4.23834e-13
1.53065e-13
3.95498e-14
8.01094e-15
1.33039e-15
1.20656e-16
0
0
0
0
0.0441628
0.0403964
0.0359888
0.0308403
0.0249226
0.018238
0.0110327
0.00468224
0.0011036
0.000122515
1.13043e-06
9.20753e-09
6.70404e-11
4.40576e-13
2.62904e-15
0
0
0
0
0
0
0
0
0
0
0
0
0
0
0
9.2248e-14
3.3117e-14
8.56977e-15
1.77809e-15
2.50838e-16
0
0
0
0
0
0.0380998
0.0343051
0.0299875
0.0250784
0.0195427
0.0134319
0.00734438
0.00271211
0.000543154
5.59484e-05
4.9959e-07
3.96475e-09
2.82096e-11
1.81559e-13
9.6525e-16
0
0
0
0
0
0
0
0
0
0
0
0
0
0
0
1.96289e-14
7.07744e-15
1.86382e-15
3.68319e-16
9.52549e-18
0
0
0
0
0
0.0320894
0.0283226
0.0242059
0.019635
0.0145905
0.00931081
0.00457762
0.00146587
0.00025612
2.51199e-05
2.17492e-07
1.68329e-09
1.17046e-11
7.36987e-14
2.60363e-16
0
0
0
0
0
0
0
0
0
0
0
0
0
0
0
4.17852e-15
1.51138e-15
3.8102e-16
5.71529e-17
0
0
0
0
0
0
0.0261812
0.02254
0.0187062
0.0145809
0.0102314
0.00602206
0.00265265
0.00073554
0.000117157
1.11481e-05
9.39582e-08
7.11138e-10
4.83819e-12
2.9837e-14
1.20656e-16
0
0
0
0
0
0
0
0
0
0
0
0
0
0
0
8.6682e-16
2.69889e-16
6.03281e-17
0
0
0
0
0
0
0
0.0203909
0.0169959
0.0135844
0.0100905
0.00664287
0.00359183
0.00140811
0.000344684
5.25365e-05
4.93261e-06
4.07586e-08
3.032e-10
2.02273e-12
1.22149e-14
0
0
0
0
0
0
0
0
0
0
0
0
0
0
0
0
1.20656e-16
9.52549e-18
0
0
0
0
0
0
0
0
0.0147932
0.0118494
0.00905546
0.00637111
0.00391623
0.00193216
0.000674625
0.000153294
2.33731e-05
2.20852e-06
1.81091e-08
1.33441e-10
8.75021e-13
5.15012e-15
0
0
0
0
0
0
0
0
0
0
0
0
0
0
0
0
0
0
0
0
0
0
0
0
0
0
0.0096579
0.00739598
0.00537505
0.0035617
0.00202895
0.000909401
0.000291872
6.5798e-05
1.04812e-05
1.0264e-06
8.52465e-09
6.2899e-11
4.05741e-13
2.30517e-15
0
0
0
0
0
0
0
0
0
0
0
0
0
0
0
0
0
0
0
0
0
0
0
0
0
0
0.00542209
0.00396067
0.0027219
0.00168548
0.000886131
0.000368605
0.000115992
2.76314e-05
4.83238e-06
5.16218e-07
4.50841e-09
3.3724e-11
2.12707e-13
1.09543e-15
0
0
0
0
0
0
0
0
0
0
0
0
0
0
0
0
0
0
0
0
0
0
0
0
0
0
0.00247936
0.00172535
0.00111661
0.000647138
0.000320954
0.000130793
4.30672e-05
1.14317e-05
2.33207e-06
2.98316e-07
2.9592e-09
2.25152e-11
1.3511e-13
6.09631e-16
0
0
0
0
0
0
0
0
0
0
0
0
0
0
0
0
0
0
0
0
0
0
0
0
0
0
0.000882296
0.000589074
0.000363896
0.000202881
9.92096e-05
4.16704e-05
1.49792e-05
4.61353e-06
1.17427e-06
2.09374e-07
2.79669e-09
2.02094e-11
1.05711e-13
3.90545e-16
0
0
0
0
0
0
0
0
0
0
0
0
0
0
0
0
0
0
0
0
0
0
0
0
0
0
0.000247231
0.000161741
9.80345e-05
5.4284e-05
2.70188e-05
1.19956e-05
4.78333e-06
1.73729e-06
5.78188e-07
1.73012e-07
6.88088e-08
2.34364e-08
7.1858e-09
2.04348e-09
5.48623e-10
1.4058e-10
3.46218e-11
8.23257e-12
1.89586e-12
4.23834e-13
9.2248e-14
1.96289e-14
4.17852e-15
8.6682e-16
1.20656e-16
0
0
0
0
0
0
0
0
0
0
0
0
0
0
0
5.77178e-05
3.75975e-05
2.27656e-05
1.27329e-05
6.53202e-06
3.07529e-06
1.34355e-06
5.53141e-07
2.16747e-07
8.00855e-08
2.88892e-08
9.44875e-09
2.83635e-09
7.94589e-10
2.10513e-10
5.32492e-11
1.29466e-11
3.03986e-12
6.91713e-13
1.53065e-13
3.3117e-14
7.07744e-15
1.51138e-15
2.69889e-16
9.52549e-18
0
0
0
0
0
0
0
0
0
0
0
0
0
0
0
1.15917e-05
7.56745e-06
4.61257e-06
2.62207e-06
1.38848e-06
6.87783e-07
3.21873e-07
1.43689e-07
6.11925e-08
2.42521e-08
8.60527e-09
2.75932e-09
8.13787e-10
2.24232e-10
5.84403e-11
1.45405e-11
3.47768e-12
8.0378e-13
1.80387e-13
3.95498e-14
8.56977e-15
1.86382e-15
3.8102e-16
6.03281e-17
0
0
0
0
0
0
0
0
0
0
0
0
0
0
0
0
2.0053e-06
1.31515e-06
8.09164e-07
4.67999e-07
2.54895e-07
1.31334e-07
6.44117e-08
3.01366e-08
1.33224e-08
5.38999e-09
1.91713e-09
6.10749e-10
1.7819e-10
4.84569e-11
1.2446e-11
3.04949e-12
7.18311e-13
1.6374e-13
3.64572e-14
8.01094e-15
1.77809e-15
3.68319e-16
5.71529e-17
0
0
0
0
0
0
0
0
0
0
0
0
0
0
0
0
0
2.94376e-07
1.94122e-07
1.20621e-07
7.08774e-08
3.94893e-08
2.09274e-08
1.0568e-08
5.0646e-09
2.26779e-09
9.19473e-10
3.27566e-10
1.04062e-10
3.01413e-11
8.11042e-12
2.05686e-12
4.97189e-13
1.15652e-13
2.61919e-14
5.90263e-15
1.33039e-15
2.50838e-16
9.52549e-18
0
0
0
0
0
0
0
0
0
0
0
0
0
0
0
0
0
0
3.57191e-08
2.36868e-08
1.48544e-08
8.84534e-09
5.01272e-09
2.70621e-09
1.38882e-09
6.71722e-10
3.00663e-10
1.2114e-10
4.30238e-11
1.36161e-11
3.918e-12
1.04452e-12
2.62056e-13
6.27508e-14
1.45835e-14
3.37202e-15
7.8109e-16
1.20656e-16
0
0
0
0
0
0
0
0
0
0
0
0
0
0
0
0
0
0
0
0
3.44114e-09
2.2941e-09
1.45022e-09
8.72647e-10
5.00435e-10
2.73142e-10
1.41136e-10
6.82484e-11
3.03109e-11
1.20793e-11
4.25798e-12
1.33914e-12
3.82645e-13
1.0124e-13
2.52838e-14
6.08679e-15
1.44787e-15
3.07991e-16
3.49268e-17
0
0
0
0
0
0
0
0
0
0
0
0
0
0
0
0
0
0
0
0
0
2.46796e-10
1.6532e-10
1.05201e-10
6.37978e-11
3.68652e-11
2.02276e-11
1.04565e-11
5.02579e-12
2.20551e-12
8.66991e-13
3.02479e-13
9.44357e-14
2.69063e-14
7.18222e-15
1.84159e-15
4.28647e-16
8.57294e-17
0
0
0
0
0
0
0
0
0
0
0
0
0
0
0
0
0
0
0
0
0
0
0
1.17131e-11
7.87911e-12
5.04062e-12
3.07398e-12
1.78416e-12
9.80338e-13
5.05073e-13
2.40566e-13
1.04193e-13
4.04833e-14
1.40406e-14
4.43253e-15
1.27959e-15
3.07991e-16
5.39778e-17
0
0
0
0
0
0
0
0
0
0
0
0
0
0
0
0
0
0
0
0
0
0
0
0
0
2.76236e-13
1.86487e-13
1.19942e-13
7.3486e-14
4.28361e-14
2.35978e-14
1.21387e-14
5.77245e-15
2.47663e-15
9.62075e-16
2.85765e-16
7.62039e-17
0
0
0
0
0
0
0
0
0
0
0
0
0
0
0
0
0
0
0
0
0
0
0
0
0
0
0
0
0.431367
0.39638
0.357535
0.320264
0.286698
0.257234
0.23157
0.209207
0.189709
0.172694
0.157808
0.144729
0.133137
0.122767
0.113456
0.10503
0.0973432
0.0902738
0.0837164
0.0775801
0.071781
0.0662294
0.0608009
0.0552624
0.0494028
0.0429916
0.035671
0.0270576
0.0172839
0.00822695
0.00272902
0.000675925
0.000137395
2.375e-05
3.47155e-06
4.18769e-07
4.00694e-08
2.85286e-09
1.34407e-10
3.14403e-12
0.396388
0.367063
0.334167
0.301926
0.272201
0.245552
0.221909
0.201025
0.182635
0.166462
0.152225
0.139649
0.128437
0.118381
0.109326
0.101113
0.0936059
0.0866904
0.0802675
0.0742507
0.0685579
0.0630934
0.0577068
0.0521416
0.0462236
0.039698
0.0322101
0.0234827
0.0140261
0.00612428
0.0019032
0.000458309
9.2468e-05
1.59783e-05
2.34031e-06
2.83149e-07
2.71832e-08
1.9419e-09
9.17843e-11
2.15371e-12
0.357526
0.334174
0.307373
0.280379
0.254806
0.231284
0.209966
0.190835
0.173782
0.158639
0.145205
0.13325
0.122521
0.112882
0.10418
0.0962732
0.0890363
0.0823628
0.0761605
0.0703459
0.0648317
0.0595001
0.0541353
0.0485466
0.0425579
0.0358925
0.0282266
0.019481
0.01067
0.00423148
0.00123546
0.000290695
5.84447e-05
1.01326e-05
1.49221e-06
1.81601e-07
1.75307e-08
1.25844e-09
5.97255e-11
1.40653e-12
0.320267
0.301929
0.280378
0.258049
0.236279
0.215725
0.196711
0.179369
0.163704
0.149645
0.137063
0.125757
0.115579
0.106417
0.0981309
0.0905918
0.0836865
0.0773153
0.0713889
0.0658182
0.0604938
0.0552311
0.0498405
0.0441906
0.0380697
0.0312049
0.0233806
0.0148892
0.00730233
0.00262555
0.000729887
0.000170034
3.44055e-05
6.03103e-06
8.98294e-07
1.10424e-07
1.07472e-08
7.7634e-10
3.7015e-11
8.74735e-13
0.286699
0.2722
0.254804
0.236279
0.217716
0.199784
0.182876
0.167201
0.152847
0.139818
0.128028
0.117353
0.107744
0.099081
0.0912398
0.0841028
0.0775623
0.0715197
0.0658771
0.0605189
0.0552618
0.0499484
0.0444673
0.0386465
0.0322712
0.0251509
0.0173664
0.0098144
0.00423586
0.00140455
0.000382582
9.0359e-05
1.87196e-05
3.35808e-06
5.09917e-07
6.36137e-08
6.25635e-09
4.55022e-10
2.17817e-11
5.15929e-13
0.257234
0.24555
0.231282
0.215724
0.199783
0.184071
0.168983
0.154761
0.141544
0.129383
0.118242
0.108157
0.0990794
0.090901
0.0835033
0.0767681
0.0705818
0.0648285
0.059369
0.0540098
0.0486478
0.0431663
0.0374104
0.0312125
0.0244591
0.0172792
0.0103773
0.00501943
0.00193928
0.000623183
0.000174693
4.33372e-05
9.40852e-06
1.75188e-06
2.73288e-07
3.4712e-08
3.451e-09
2.52348e-10
1.20988e-11
2.86444e-13
0.23157
0.221908
0.209965
0.19671
0.182875
0.168983
0.155394
0.142352
0.130011
0.118431
0.107774
0.098154
0.0895283
0.0817819
0.0747774
0.0683732
0.062418
0.0567174
0.0511391
0.045578
0.0398978
0.0339523
0.0276292
0.0209546
0.0142826
0.00841305
0.00419213
0.00178317
0.000666995
0.000226106
6.97286e-05
1.89489e-05
4.4124e-06
8.62111e-07
1.3863e-07
1.7913e-08
1.79483e-09
1.31425e-10
6.28343e-12
1.48096e-13
0.209207
0.201024
0.190834
0.179368
0.167201
0.154761
0.142352
0.130176
0.118325
0.106999
0.0964964
0.0871134
0.0787821
0.0713182
0.0645143
0.0581372
0.0520241
0.0460499
0.0400658
0.0339247
0.0275263
0.0209195
0.0144627
0.00886102
0.00477657
0.0023021
0.0010202
0.000428046
0.000173627
6.81413e-05
2.49238e-05
7.72268e-06
1.95845e-06
4.0232e-07
6.64261e-08
8.67955e-09
8.70938e-10
6.34768e-11
3.0096e-12
7.03267e-14
0.189709
0.182635
0.173782
0.163704
0.152847
0.141544
0.130011
0.118325
0.106588
0.094938
0.0837572
0.0741346
0.0657075
0.058063
0.0509169
0.0440893
0.0373967
0.0306815
0.0238916
0.0172259
0.0112246
0.0065409
0.00344531
0.00167882
0.000776275
0.000349164
0.000156421
7.14731e-05
3.39961e-05
1.68167e-05
8.12357e-06
2.98407e-06
8.26407e-07
1.76852e-07
2.96592e-08
3.88286e-09
3.8735e-10
2.79389e-11
1.30764e-12
3.02117e-14
0.172694
0.166462
0.158638
0.149644
0.139818
0.129383
0.118431
0.106999
0.094938
0.0816707
0.066213
0.0552249
0.0457684
0.0371581
0.0291151
0.0216046
0.0148732
0.00936743
0.00540755
0.002903
0.00146987
0.000709243
0.000329913
0.000149816
6.73037e-05
3.04397e-05
1.42363e-05
7.18287e-06
4.15141e-06
2.9041e-06
2.38395e-06
1.0874e-06
3.24272e-07
7.10638e-08
1.19756e-08
1.56158e-09
1.54387e-10
1.10004e-11
5.07705e-13
1.16687e-14
0.157808
0.152225
0.145205
0.137063
0.128027
0.118242
0.107774
0.0964964
0.0837572
0.0662129
0.00149351
0.000873772
0.000775669
0.000623343
0.000460908
0.000313559
0.000195438
0.000111756
5.9249e-05
2.95476e-05
1.40323e-05
6.41438e-06
2.85393e-06
1.25063e-06
5.47665e-07
2.44836e-07
1.15697e-07
6.13125e-08
4.02523e-08
3.7958e-08
9.34741e-07
3.87446e-07
1.13962e-07
2.51027e-08
4.24745e-09
5.53353e-10
5.43977e-11
3.83955e-12
1.75215e-13
4.04198e-15
0.144729
0.139649
0.13325
0.125757
0.117353
0.108157
0.098154
0.0871134
0.0741346
0.0552249
0.000873773
2.11407e-05
1.00035e-05
7.78051e-06
5.42642e-06
3.42819e-06
1.98204e-06
1.0603e-06
5.31586e-07
2.52765e-07
1.15157e-07
5.07722e-08
2.18937e-08
9.34527e-09
4.01189e-09
1.77373e-09
8.38602e-10
4.50505e-10
3.01001e-10
2.69829e-10
3.14347e-07
1.2538e-07
3.62413e-08
7.94939e-09
1.34415e-09
1.74781e-10
1.70999e-11
1.19767e-12
5.42318e-14
1.25419e-15
0.133137
0.128437
0.122521
0.115579
0.107744
0.0990794
0.0895284
0.0787822
0.0657075
0.0457684
0.000775669
1.00035e-05
1.87546e-07
7.42307e-08
4.98604e-08
3.02453e-08
1.67396e-08
8.59033e-09
4.1452e-09
1.90284e-09
8.39413e-10
3.59364e-10
1.50856e-10
6.28552e-11
2.64206e-11
1.14722e-11
5.33319e-12
2.80061e-12
1.78034e-12
1.39206e-12
9.53526e-08
3.73087e-08
1.0617e-08
2.30839e-09
3.88205e-10
5.02265e-11
4.88345e-12
3.39466e-13
1.53487e-14
3.20692e-16
0.122767
0.118381
0.112882
0.106417
0.099081
0.090901
0.0817819
0.0713182
0.058063
0.0371581
0.000623343
7.78051e-06
7.42308e-08
1.15211e-09
3.8881e-10
2.27899e-10
1.22658e-10
6.11788e-11
2.87016e-11
1.28177e-11
5.50559e-12
2.29684e-12
9.40293e-13
3.82274e-13
1.56926e-13
6.64593e-14
3.00021e-14
1.50884e-14
8.86823e-15
6.03599e-15
2.68828e-08
1.03802e-08
2.91064e-09
6.25634e-10
1.04267e-10
1.33809e-11
1.29026e-12
8.90951e-14
4.07056e-15
6.66784e-17
0.113456
0.109326
0.10418
0.0981309
0.0912398
0.0835033
0.0747774
0.0645143
0.0509169
0.0291151
0.000460908
5.42642e-06
4.98604e-08
3.8881e-10
5.21075e-12
1.53373e-12
8.01421e-13
3.91387e-13
1.79721e-13
7.85281e-14
3.30376e-14
1.34849e-14
5.3819e-15
2.09243e-15
7.7474e-16
2.09561e-16
1.20656e-16
0
0
0
7.16962e-09
2.73612e-09
7.55912e-10
1.60357e-10
2.64197e-11
3.35501e-12
3.20377e-13
2.20769e-14
1.03828e-15
0
0.10503
0.101113
0.0962732
0.0905918
0.0841028
0.0767681
0.0683732
0.0581372
0.0440893
0.0216046
0.000313559
3.42819e-06
3.02453e-08
2.27899e-10
1.53373e-12
1.84604e-14
4.82307e-15
2.24484e-15
9.14447e-16
2.50838e-16
1.20656e-16
0
0
0
0
0
0
0
0
0
1.82837e-09
6.89712e-10
1.87677e-10
3.92519e-11
6.38382e-12
8.01176e-13
7.58832e-14
5.29935e-15
1.9686e-16
0
0.0973433
0.0936059
0.0890363
0.0836865
0.0775623
0.0705818
0.062418
0.0520241
0.0373967
0.0148731
0.000195438
1.98204e-06
1.67396e-08
1.22658e-10
8.01421e-13
4.82307e-15
0
0
0
0
0
0
0
0
0
0
0
0
0
0
4.48873e-10
1.67353e-10
4.48443e-11
9.24289e-12
1.48327e-12
1.84029e-13
1.73808e-14
1.25419e-15
0
0
0.0902738
0.0866904
0.0823628
0.0773153
0.0715197
0.0648285
0.0567175
0.0460499
0.0306816
0.00936742
0.000111756
1.0603e-06
8.59034e-09
6.11789e-11
3.91387e-13
2.24484e-15
0
0
0
0
0
0
0
0
0
0
0
0
0
0
1.06552e-10
3.92621e-11
1.03626e-11
2.1055e-12
3.3371e-13
4.11152e-14
3.9372e-15
2.50838e-16
0
0
0.0837165
0.0802675
0.0761606
0.0713889
0.0658771
0.059369
0.0511391
0.0400658
0.0238916
0.00540755
5.9249e-05
5.31587e-07
4.1452e-09
2.87016e-11
1.79721e-13
9.14447e-16
0
0
0
0
0
0
0
0
0
0
0
0
0
0
2.45232e-11
8.93318e-12
2.3242e-12
4.66168e-13
7.3232e-14
9.07779e-15
8.76345e-16
9.52549e-18
0
0
0.0775801
0.0742507
0.0703459
0.0658182
0.0605189
0.0540098
0.045578
0.0339247
0.0172259
0.002903
2.95476e-05
2.52765e-07
1.90284e-09
1.28177e-11
7.85281e-14
2.50838e-16
0
0
0
0
0
0
0
0
0
0
0
0
0
0
5.48117e-12
1.97522e-12
5.07471e-13
1.00859e-13
1.58345e-14
2.00988e-15
1.46058e-16
0
0
0
0.071781
0.0685579
0.0648317
0.0604938
0.0552618
0.0486479
0.0398978
0.0275263
0.0112246
0.00146987
1.40323e-05
1.15157e-07
8.39414e-10
5.50559e-12
3.30376e-14
1.20656e-16
0
0
0
0
0
0
0
0
0
0
0
0
0
0
1.19072e-12
4.2511e-13
1.08219e-13
2.15054e-14
3.43235e-15
4.19122e-16
0
0
0
0
0.0662294
0.0630934
0.0595002
0.0552311
0.0499484
0.0431663
0.0339523
0.0209195
0.00654091
0.000709244
6.41438e-06
5.07723e-08
3.59365e-10
2.29681e-12
1.34849e-14
0
0
0
0
0
0
0
0
0
0
0
0
0
0
0
2.51575e-13
8.92538e-14
2.26834e-14
4.59764e-15
7.42988e-16
7.62039e-17
0
0
0
0
0.0608009
0.0577068
0.0541353
0.0498405
0.0444673
0.0374105
0.0276293
0.0144627
0.00344531
0.000329913
2.85393e-06
2.18937e-08
1.50856e-10
9.40293e-13
5.3819e-15
0
0
0
0
0
0
0
0
0
0
0
0
0
0
0
5.17869e-14
1.83747e-14
4.75322e-15
9.7795e-16
1.20656e-16
0
0
0
0
0
0.0552624
0.0521416
0.0485466
0.0441906
0.0386466
0.0312125
0.0209546
0.00886103
0.00167882
0.000149816
1.25064e-06
9.34528e-09
6.28552e-11
3.82274e-13
2.09243e-15
0
0
0
0
0
0
0
0
0
0
0
0
0
0
0
1.04495e-14
3.74987e-15
9.87476e-16
1.65109e-16
0
0
0
0
0
0
0.0494028
0.0462236
0.042558
0.0380697
0.0322712
0.0244591
0.0142826
0.00477658
0.000776276
6.73038e-05
5.47666e-07
4.0119e-09
2.64206e-11
1.56926e-13
7.7474e-16
0
0
0
0
0
0
0
0
0
0
0
0
0
0
0
2.09561e-15
7.55689e-16
1.55583e-16
0
0
0
0
0
0
0
0.0429916
0.0396981
0.0358925
0.0312049
0.0251509
0.0172793
0.00841306
0.00230211
0.000349165
3.04397e-05
2.44837e-07
1.77373e-09
1.14722e-11
6.64593e-14
2.09561e-16
0
0
0
0
0
0
0
0
0
0
0
0
0
0
0
3.90545e-16
1.20656e-16
0
0
0
0
0
0
0
0
0.035671
0.0322101
0.0282266
0.0233806
0.0173664
0.0103773
0.00419214
0.0010202
0.000156421
1.42363e-05
1.15697e-07
8.38603e-10
5.33319e-12
3.00021e-14
1.20656e-16
0
0
0
0
0
0
0
0
0
0
0
0
0
0
0
4.44523e-17
0
0
0
0
0
0
0
0
0
0.0270576
0.0234828
0.019481
0.0148893
0.00981441
0.00501943
0.00178318
0.000428046
7.14732e-05
7.18288e-06
6.13126e-08
4.50506e-10
2.80061e-12
1.50884e-14
0
0
0
0
0
0
0
0
0
0
0
0
0
0
0
0
0
0
0
0
0
0
0
0
0
0
0.0172839
0.0140262
0.01067
0.00730234
0.00423587
0.00193928
0.000666997
0.000173627
3.39961e-05
4.15141e-06
4.02524e-08
3.01001e-10
1.78034e-12
8.86823e-15
0
0
0
0
0
0
0
0
0
0
0
0
0
0
0
0
0
0
0
0
0
0
0
0
0
0
0.00822696
0.00612429
0.00423149
0.00262555
0.00140455
0.000623185
0.000226107
6.81414e-05
1.68167e-05
2.9041e-06
3.7958e-08
2.69829e-10
1.39206e-12
6.03599e-15
0
0
0
0
0
0
0
0
0
0
0
0
0
0
0
0
0
0
0
0
0
0
0
0
0
0
0.00272902
0.0019032
0.00123546
0.000729889
0.000382582
0.000174694
6.97287e-05
2.49238e-05
8.12358e-06
2.38395e-06
9.34742e-07
3.14347e-07
9.53528e-08
2.68828e-08
7.16962e-09
1.82837e-09
4.48874e-10
1.06552e-10
2.45232e-11
5.48118e-12
1.19072e-12
2.51575e-13
5.17869e-14
1.04495e-14
2.09561e-15
3.90545e-16
4.44523e-17
0
0
0
0
0
0
0
0
0
0
0
0
0
0.000675926
0.00045831
0.000290696
0.000170035
9.03592e-05
4.33373e-05
1.8949e-05
7.72269e-06
2.98407e-06
1.0874e-06
3.87447e-07
1.25381e-07
3.73088e-08
1.03803e-08
2.73612e-09
6.89713e-10
1.67353e-10
3.92621e-11
8.93319e-12
1.97522e-12
4.2511e-13
8.92538e-14
1.83747e-14
3.74987e-15
7.55689e-16
1.20656e-16
0
0
0
0
0
0
0
0
0
0
0
0
0
0
0.000137395
9.24682e-05
5.84448e-05
3.44056e-05
1.87196e-05
9.40854e-06
4.4124e-06
1.95846e-06
8.26408e-07
3.24272e-07
1.13963e-07
3.62413e-08
1.06171e-08
2.91064e-09
7.55913e-10
1.87678e-10
4.48443e-11
1.03626e-11
2.3242e-12
5.07471e-13
1.08219e-13
2.26834e-14
4.75322e-15
9.87476e-16
1.55583e-16
0
0
0
0
0
0
0
0
0
0
0
0
0
0
0
2.375e-05
1.59784e-05
1.01327e-05
6.03104e-06
3.35809e-06
1.75188e-06
8.62113e-07
4.02321e-07
1.76852e-07
7.10639e-08
2.51028e-08
7.9494e-09
2.30839e-09
6.25634e-10
1.60358e-10
3.92519e-11
9.2429e-12
2.1055e-12
4.66168e-13
1.00859e-13
2.15054e-14
4.59764e-15
9.7795e-16
1.65109e-16
0
0
0
0
0
0
0
0
0
0
0
0
0
0
0
0
3.47156e-06
2.34031e-06
1.49221e-06
8.98296e-07
5.09918e-07
2.73289e-07
1.3863e-07
6.64262e-08
2.96593e-08
1.19756e-08
4.24746e-09
1.34415e-09
3.88206e-10
1.04268e-10
2.64197e-11
6.38382e-12
1.48327e-12
3.3371e-13
7.3232e-14
1.58345e-14
3.43235e-15
7.42988e-16
1.20656e-16
0
0
0
0
0
0
0
0
0
0
0
0
0
0
0
0
0
4.18769e-07
2.8315e-07
1.81601e-07
1.10425e-07
6.36138e-08
3.47121e-08
1.7913e-08
8.67956e-09
3.88286e-09
1.56159e-09
5.53354e-10
1.74781e-10
5.02265e-11
1.33809e-11
3.35501e-12
8.01186e-13
1.84029e-13
4.11152e-14
9.07779e-15
2.00988e-15
4.19122e-16
7.62039e-17
0
0
0
0
0
0
0
0
0
0
0
0
0
0
0
0
0
0
4.00695e-08
2.71832e-08
1.75307e-08
1.07473e-08
6.25636e-09
3.45101e-09
1.79484e-09
8.70939e-10
3.8735e-10
1.54387e-10
5.43978e-11
1.70999e-11
4.88347e-12
1.29026e-12
3.20377e-13
7.58832e-14
1.73808e-14
3.9372e-15
8.76345e-16
1.46058e-16
0
0
0
0
0
0
0
0
0
0
0
0
0
0
0
0
0
0
0
0
2.85287e-09
1.94191e-09
1.25844e-09
7.76341e-10
4.55023e-10
2.52349e-10
1.31425e-10
6.34769e-11
2.7939e-11
1.10004e-11
3.83957e-12
1.19767e-12
3.39466e-13
8.90951e-14
2.20769e-14
5.29935e-15
1.25419e-15
2.50838e-16
9.52549e-18
0
0
0
0
0
0
0
0
0
0
0
0
0
0
0
0
0
0
0
0
0
1.34407e-10
9.17844e-11
5.97256e-11
3.70151e-11
2.17817e-11
1.20988e-11
6.28346e-12
3.00961e-12
1.30764e-12
5.07705e-13
1.75215e-13
5.42318e-14
1.53487e-14
4.07056e-15
1.03828e-15
1.9686e-16
0
0
0
0
0
0
0
0
0
0
0
0
0
0
0
0
0
0
0
0
0
0
0
0
3.14403e-12
2.15371e-12
1.40653e-12
8.74735e-13
5.15929e-13
2.86444e-13
1.48096e-13
7.03267e-14
3.02117e-14
1.16687e-14
4.04198e-15
1.25419e-15
3.20692e-16
6.66784e-17
0
0
0
0
0
0
0
0
0
0
0
0
0
0
0
0
0
0
0
0
0
0
0
0
0
0
0.515865
0.475097
0.425074
0.376344
0.333181
0.296271
0.265032
0.238531
0.215867
0.196355
0.179463
0.164753
0.151857
0.140462
0.130288
0.121139
0.112838
0.105236
0.0982027
0.091622
0.0853868
0.0793895
0.0735087
0.0676201
0.0615856
0.0552139
0.0482195
0.0401861
0.030611
0.0194528
0.00888346
0.002693
0.000595116
0.000106238
1.57786e-05
1.9223e-06
1.85181e-07
1.3249e-08
6.26588e-10
1.47055e-11
0.475125
0.43729
0.394295
0.352562
0.314886
0.281963
0.253542
0.229014
0.207763
0.1893
0.173208
0.159122
0.146723
0.135723
0.125879
0.117008
0.108944
0.101544
0.0946842
0.0882533
0.0821456
0.0762527
0.0704515
0.0646249
0.0586318
0.0522706
0.0452402
0.0371126
0.0274299
0.0164587
0.00692494
0.00197133
0.000423863
7.49644e-05
1.10964e-05
1.35023e-06
1.30053e-07
9.3094e-09
4.40662e-10
1.0354e-11
0.425047
0.394302
0.359506
0.325131
0.293296
0.264748
0.239499
0.21725
0.19768
0.180489
0.165382
0.152075
0.140306
0.129816
0.120406
0.111908
0.104167
0.0970487
0.0904354
0.0842188
0.0782939
0.0725485
0.0668688
0.0611436
0.0552245
0.0488949
0.0418376
0.0336179
0.0238643
0.0132926
0.00509197
0.00136148
0.00028551
5.01207e-05
7.40749e-06
9.01816e-07
8.6972e-08
6.23474e-09
2.95551e-10
6.95438e-12
0.376345
0.352574
0.325136
0.297291
0.270762
0.2463
0.224093
0.204116
0.186275
0.170417
0.156358
0.143894
0.132809
0.122892
0.113981
0.105915
0.09855
0.0917608
0.0854336
0.0794615
0.0737368
0.0681505
0.0626075
0.0569912
0.0511409
0.0448262
0.0377164
0.0293901
0.0196716
0.00993048
0.00343701
0.00087037
0.000179578
3.14856e-05
4.66775e-06
5.70499e-07
5.52151e-08
3.96921e-09
1.88529e-10
4.44243e-12
0.333185
0.314894
0.2933
0.270763
0.248661
0.227687
0.208176
0.190289
0.174069
0.159478
0.146428
0.134791
0.124385
0.115061
0.106666
0.0990507
0.0920786
0.0856278
0.0795857
0.0738424
0.0682951
0.0628564
0.0574266
0.0518782
0.0460385
0.0396658
0.0324308
0.0240047
0.0146613
0.00652551
0.00205339
0.000503036
0.000103886
1.84079e-05
2.75932e-06
3.40288e-07
3.3144e-08
2.39187e-09
1.13826e-10
2.68381e-12
0.296274
0.281968
0.26475
0.246301
0.227688
0.209565
0.192342
0.176261
0.161447
0.147955
0.135784
0.124867
0.115094
0.106332
0.0984308
0.0912425
0.0846335
0.0784806
0.072666
0.0670951
0.0616786
0.0563221
0.0509129
0.0453092
0.039328
0.0327338
0.0252812
0.0170042
0.00901611
0.00350627
0.00104258
0.00025738
5.46885e-05
9.96183e-06
1.52502e-06
1.90743e-07
1.87322e-08
1.35686e-09
6.45998e-11
1.52084e-12
0.265034
0.253545
0.2395
0.224093
0.208176
0.192342
0.176988
0.162374
0.148673
0.13601
0.124475
0.114117
0.104867
0.0965779
0.0890873
0.082241
0.0758953
0.0699325
0.0642514
0.0587543
0.0533396
0.0478918
0.0422783
0.0363456
0.0299333
0.0229508
0.0156161
0.00883619
0.00396629
0.00143497
0.000440258
0.000116325
2.62932e-05
5.00759e-06
7.88695e-07
1.00244e-07
9.9159e-09
7.19029e-10
3.4132e-11
7.99363e-13
0.238532
0.229015
0.217251
0.204117
0.190289
0.176261
0.162375
0.148865
0.135905
0.123654
0.112347
0.102276
0.0933456
0.0853518
0.0780941
0.0714045
0.0651513
0.0592155
0.0534803
0.0478199
0.0421001
0.0361819
0.0299425