/*--------------------------------*- C++ -*----------------------------------*\
| =========                 |                                                 |
| \\      /  F ield         | OpenFOAM: The Open Source CFD Toolbox           |
|  \\    /   O peration     | Version:  2.1.0                                 |
|   \\  /    A nd           | Web:      www.OpenFOAM.org                      |
|    \\/     M anipulation  |                                                 |
\*---------------------------------------------------------------------------*/
FoamFile
{
    version     2.0;
    format      ascii;
    class       surfaceScalarField;
    location    "12045";
    object      phi_o;
}
// * * * * * * * * * * * * * * * * * * * * * * * * * * * * * * * * * * * * * //

dimensions      [1 -2 -2 0 0 0 0];

internalField   nonuniform List<scalar> 
22000
(
15.3053
15.305
-23.1034
25.9367
13.7258
-17.7832
31.9999
11.5712
-11.9371
35.0345
9.49275
-7.5045
36.4252
7.72364
-4.58443
37.081
6.28539
-2.77262
37.5219
5.12534
-1.67513
38.0248
4.18203
-1.01351
38.7246
3.40537
-0.609465
39.676
2.76041
-0.355286
40.8882
2.22498
-0.187932
42.3445
1.78542
-0.0715134
44.0103
1.43164
0.013217
45.8498
1.15571
0.0832436
47.8254
0.950626
0.147394
49.9015
0.810454
0.209865
52.0458
0.730718
0.271777
54.2278
0.70888
0.331065
56.4182
0.744125
0.382512
58.5925
0.839876
0.418111
60.7302
1.00492
0.421969
62.8092
1.25213
0.363708
64.7941
1.59532
0.194341
66.6477
2.04021
-0.137277
68.3735
2.60882
-0.662033
69.8835
3.29018
-1.4766
70.9457
4.02797
-2.63418
71.163
4.7407
-3.94918
70.1028
5.38531
-4.75198
67.4281
5.95735
-4.14774
63.0465
6.42169
-2.49802
57.367
6.77874
-1.23436
50.893
7.05022
-0.60619
43.9595
7.23815
-0.309962
36.7722
7.34882
-0.162108
29.459
7.39862
-0.0855277
22.0964
7.40801
-0.045367
14.7246
7.39656
-0.0244962
7.35894
7.38006
-0.0143039
7.36927
-0.0103522
13.7262
25.9365
-17.7834
23.782
23.7819
-14.1911
29.9215
20.6048
-9.89925
33.2654
17.3272
-6.4248
34.987
14.3826
-4.02175
35.9209
11.8826
-2.47688
36.5786
9.79643
-1.5164
37.2481
8.05373
-0.924713
38.0796
6.58845
-0.556065
39.1405
5.35268
-0.319583
40.4486
4.31659
-0.160802
41.9907
3.46228
-0.0486042
43.7344
2.77443
0.0349466
45.6447
2.24063
0.106011
47.6852
1.84807
0.17215
49.8218
1.58482
0.236765
52.0239
1.44146
0.299956
54.2631
1.41184
0.358508
56.514
1.4946
0.406512
58.7576
1.69726
0.433751
60.9774
2.03501
0.41928
63.1524
2.52776
0.325525
65.239
3.1904
0.0972671
67.2163
4.04162
-0.303337
69.0549
5.10933
-0.923359
70.6213
6.36352
-1.84501
71.6585
7.72987
-3.05486
71.8076
9.12795
-4.25433
70.6748
10.4974
-4.71115
67.8924
11.7494
-3.77162
63.4035
12.7764
-2.19677
57.6384
13.5722
-1.11947
51.0809
14.1558
-0.567628
44.0702
14.5394
-0.294021
36.822
14.7509
-0.154242
29.4684
14.8335
-0.081395
22.085
14.8346
-0.0431777
14.7081
14.7969
-0.0234144
7.34814
14.7534
-0.0137418
14.7262
-0.00990753
11.5715
32
-11.9376
20.605
29.9212
-9.89918
26.6439
26.6437
-7.2414
30.3209
23.0239
-4.91071
32.4869
19.5661
-3.18818
33.8348
16.4709
-2.02102
34.8359
13.7703
-1.26377
35.7829
11.4288
-0.779203
36.8439
9.39986
-0.466365
38.1045
7.6493
-0.258576
39.5943
6.16017
-0.114416
41.3029
4.92413
-0.0102858
43.2006
3.93073
0.071353
45.2521
3.16602
0.14348
47.4219
2.61162
0.211408
49.6784
2.249
0.276915
51.9943
2.0626
0.338319
54.3458
2.04173
0.390824
56.7166
2.18611
0.426649
59.0954
2.5062
0.429973
61.4702
3.02069
0.37128
63.815
3.74899
0.204287
66.0902
4.70397
-0.120753
68.284
5.93624
-0.626829
70.3091
7.4497
-1.3808
71.9876
9.20724
-2.41735
73.0565
11.1568
-3.61777
73.177
13.2497
-4.55545
71.9269
15.393
-4.5031
68.9193
17.4021
-3.24279
64.1993
19.1104
-1.83373
58.222
20.4512
-0.959273
51.4645
21.4002
-0.49925
44.2817
21.982
-0.262208
36.9046
22.2661
-0.138501
29.4696
22.3417
-0.0733924
22.0473
22.2962
-0.0390871
14.6645
22.2013
-0.0212156
7.32095
22.1099
-0.0124011
22.0559
-0.00887214
9.49268
35.0344
-7.50437
17.3274
33.2654
-6.42479
23.0241
30.3208
-4.91079
26.8631
26.863
-3.47997
29.3918
23.3555
-2.34943
31.1341
20.0376
-1.53793
32.4945
16.9958
-0.983085
33.7539
14.2416
-0.61018
35.0933
11.7657
-0.357724
36.6153
9.56867
-0.182062
38.3582
7.66795
-0.055261
40.3095
6.08214
0.0399164
42.4359
4.8169
0.119594
44.6977
3.85748
0.191662
47.0593
3.17782
0.259132
49.492
2.7498
0.321253
51.9734
2.54888
0.373885
54.4902
2.56172
0.410238
57.0367
2.78795
0.417147
59.6098
3.23745
0.369981
62.1985
3.92406
0.229369
64.77
4.8575
-0.0519035
67.3225
6.09052
-0.490831
69.7975
7.6426
-1.13896
72.0666
9.50659
-2.03476
73.9372
11.679
-3.12608
75.1494
14.1796
-4.16909
75.3203
16.9968
-4.64539
73.936
19.9957
-4.00954
70.6276
22.9263
-2.62059
65.5402
25.5348
-1.46849
59.171
27.5713
-0.784511
52.0464
28.9327
-0.415081
44.5657
29.6814
-0.220235
36.9803
29.9684
-0.117245
29.424
29.9606
-0.0625391
21.9524
29.8014
-0.0336138
14.573
29.599
-0.0184809
7.2669
29.4271
-0.0108483
29.3306
-0.00768994
7.72372
36.4252
-4.58448
14.3828
34.987
-4.02192
19.5662
32.4869
-3.18832
23.3557
29.3917
-2.34949
26.0738
26.0737
-1.6448
28.0923
22.7609
-1.10783
29.7402
19.5639
-0.7188
31.278
16.5282
-0.441977
32.8963
13.6819
-0.243562
34.7146
11.0714
-0.0979862
36.7724
8.7703
0.0110627
39.0442
6.85783
0.0994721
41.4765
5.36002
0.176561
44.0181
4.25595
0.245906
46.6313
3.50334
0.307163
49.2911
3.0574
0.356357
51.9863
2.88516
0.386897
54.7164
2.96899
0.386531
57.4862
3.30326
0.333115
60.2964
3.88455
0.192829
63.1319
4.71947
-0.074941
66.003
5.84516
-0.484167
68.8746
7.26957
-1.07698
71.6615
8.99095
-1.88037
74.239
11.0417
-2.85333
76.4379
13.5165
-3.82926
77.9665
16.5208
-4.46011
78.3192
20.0784
-4.27201
76.8666
24.0846
-3.19632
73.2361
28.304
-1.975
67.5766
32.2438
-1.11894
60.5324
35.2048
-0.607174
52.7951
36.9906
-0.324665
44.8528
37.7966
-0.173664
36.9725
37.942
-0.093223
29.2648
37.7186
-0.0502963
21.75
37.3437
-0.0273609
14.4012
36.963
-0.0152164
7.1704
36.6671
-0.00903795
36.5076
-0.00643844
6.28547
37.081
-2.77273
11.8827
35.9209
-2.47702
16.471
33.8347
-2.02112
20.0377
31.1341
-1.53797
22.7609
28.0923
-1.10784
24.8953
24.8953
-0.759654
26.7045
21.6466
-0.49121
28.4318
18.3997
-0.28755
30.2858
15.2033
-0.132079
32.4135
12.1485
-0.0122417
34.86
9.40405
0.0839419
37.5464
7.17148
0.166201
40.3724
5.49437
0.237193
43.2655
4.32046
0.295739
46.1854
3.57073
0.337228
49.1189
3.17838
0.354606
52.0701
3.09735
0.335383
55.0507
3.29699
0.258131
58.0675
3.7498
0.0925695
61.1314
4.45778
-0.187083
64.2576
5.41851
-0.599881
67.4274
6.60415
-1.17866
70.596
7.99825
-1.92833
73.7123
9.65464
-2.78997
76.7138
11.7125
-3.6161
79.4421
14.345
-4.15356
81.5242
17.7134
-4.07921
82.3254
21.9751
-3.29262
81.086
27.2803
-2.24226
77.1759
33.4964
-1.38642
70.5376
39.6487
-0.79862
62.3182
43.8542
-0.438106
53.601
45.9425
-0.236506
44.9983
46.5269
-0.127998
36.7491
46.2609
-0.0696768
28.8899
45.6161
-0.0381891
21.3692
44.8856
-0.0211092
14.1053
44.2388
-0.0119377
7.01092
43.769
-0.00719238
43.5239
-0.00518596
5.12539
37.5219
-1.67519
9.79651
36.5786
-1.51647
13.7704
34.8359
-1.26382
16.9959
32.4944
-0.983102
19.564
29.7402
-0.718804
21.6467
26.7045
-0.49121
23.4576
23.4576
-0.303628
25.2353
20.0276
-0.151184
27.231
16.4434
-0.0275041
29.6691
12.8181
0.0741566
32.6274
9.47215
0.16139
35.8693
6.91887
0.233863
39.1985
5.15855
0.287286
42.5157
4.03698
0.314809
45.793
3.40869
0.308193
49.0378
3.16944
0.253829
52.2698
3.24246
0.131649
55.5035
3.58701
-0.0834433
58.7755
4.16863
-0.399917
62.0921
4.92164
-0.848258
65.4432
5.7783
-1.43958
68.8215
6.72584
-2.1417
72.2523
7.84621
-2.86124
75.7701
9.27888
-3.4498
79.3463
11.1677
-3.71964
82.8105
13.6818
-3.50556
85.7859
17.1175
-2.86308
87.6307
21.9854
-2.10255
87.302
28.9422
-1.43756
83.3283
38.3394
-0.907836
74.7431
48.7497
-0.528489
64.4065
54.4798
-0.292634
54.1854
56.3226
-0.159964
44.7323
56.0678
-0.0880224
36.1043
54.9378
-0.0488894
28.1594
53.5883
-0.0273792
20.7224
52.3381
-0.0154635
13.6355
51.3348
-0.00891427
6.76589
50.6442
-0.00548451
50.2939
-0.00404285
4.18207
38.0248
-1.01354
8.05379
37.2482
-0.924736
11.4289
35.7829
-0.779214
14.2416
33.7539
-0.610182
16.5282
31.278
-0.441976
18.3998
28.4317
-0.287548
20.0276
25.2352
-0.151183
21.6511
21.6511
-0.032876
23.6057
17.613
0.0697882
26.3231
13.1504
0.161262
30.0741
8.74735
0.236698
34.109
5.93147
0.283711
38.0769
4.30197
0.289405
41.8875
3.44624
0.241798
45.5538
3.09614
0.12776
49.1108
3.10452
-0.0694993
52.6143
3.37799
-0.350877
56.0851
3.8026
-0.740482
59.5285
4.25895
-1.24484
62.9488
4.6962
-1.83191
66.3908
5.17191
-2.41556
69.9419
5.78289
-2.87874
73.685
6.59495
-3.09867
77.659
7.66247
-2.98558
81.8603
9.09881
-2.59536
86.2463
11.1425
-2.11851
90.6537
14.2456
-1.67356
94.5876
19.2541
-1.26665
96.6993
27.6933
-0.891119
93.7385
41.8571
-0.568867
80.4733
62.3412
-0.331127
66.2493
68.8863
-0.183985
53.9306
68.7428
-0.101721
43.6024
66.4529
-0.0570099
34.7547
63.818
-0.0324161
26.9092
61.4524
-0.0186116
19.7192
59.5389
-0.0107912
12.9449
58.1156
-0.00638162
6.41561
57.1776
-0.00404179
56.7127
-0.0030411
3.4054
38.7246
-0.609478
6.5885
38.0797
-0.556071
9.39992
36.8439
-0.466365
11.7658
35.0933
-0.35772
13.682
32.8963
-0.243558
15.2033
30.2858
-0.132077
16.4435
27.231
-0.027503
17.6131
23.6056
0.0697886
19.1431
19.143
0.162069
21.9201
13.4327
0.241973
27.2582
6.53241
0.288072
32.4795
3.93071
0.26872
37.2212
2.9106
0.161333
41.5374
2.60534
-0.0496651
45.5621
2.65997
-0.351928
49.3843
2.82654
-0.749242
53.0389
2.95647
-1.22807
56.5415
3.03428
-1.73786
59.9657
3.12615
-2.18495
63.4245
3.28424
-2.464
67.0018
3.52038
-2.49499
70.754
3.83988
-2.29202
74.7525
4.26682
-1.98966
79.0953
4.84864
-1.7103
83.904
5.6719
-1.47596
89.3494
6.91383
-1.26333
95.6622
8.9571
-1.04725
103.027
12.6945
-0.81651
110.863
20.4329
-0.581829
114.223
38.8651
-0.370406
87.0184
89.7528
-0.208929
66.1058
89.912
-0.113726
51.6407
83.2703
-0.0626802
40.9674
77.1618
-0.0355349
32.3892
72.4169
-0.0206389
24.9957
68.858
-0.0121809
18.2958
66.2461
-0.00724692
12.0069
64.4091
-0.00440392
5.95064
63.2369
-0.00286783
62.6656
-0.00219459
2.76043
39.676
-0.355293
5.35272
39.1406
-0.319584
7.64934
38.1045
-0.258574
9.56872
36.6153
-0.182057
11.0715
34.7146
-0.0979829
12.1485
32.4135
-0.0122396
12.8181
29.669
0.0741578
13.1505
26.3231
0.161262
13.4328
21.92
0.241973
15.0197
15.0197
0.292304
24.6565
13.5457
0.268981
31.4594
23.3666
0.110357
36.9159
30.7273
-0.205079
41.592
36.8474
-0.665735
45.7287
41.9839
-1.21043
49.5143
46.3527
-1.70196
53.1167
50.1926
-1.99525
56.6334
53.6715
-2.0331
60.1238
56.8941
-1.88905
63.6606
59.9528
-1.69756
67.3213
62.9398
-1.53374
71.1809
65.9527
-1.4035
75.3344
69.1083
-1.29414
79.9186
72.5633
-1.19134
85.1459
76.5564
-1.08057
91.3926
81.5038
-0.951611
99.3996
88.2381
-0.799474
110.765
98.7323
-0.627194
129.295
118.692
-0.447946
165.11
168.17
-0.28039
87.1775
167.82
-0.135067
59.4641
117.695
-0.0694312
45.5322
97.2399
-0.0377124
36.2225
86.493
-0.0215563
28.8302
79.822
-0.0127597
22.3838
75.3121
-0.00769333
16.4588
72.176
-0.00468195
10.8348
70.0361
-0.00293222
5.37931
68.6944
-0.00196771
68.0464
-0.00154008
2.225
40.8882
-0.187936
4.31662
40.4486
-0.160802
6.1602
39.5943
-0.114413
7.66799
38.3582
-0.0552577
8.77035
36.7724
0.0110655
9.40409
34.8599
0.0839437
9.47219
32.6274
0.161391
8.74738
30.0741
0.236699
6.53244
27.2582
0.288073
13.5458
24.6565
0.26898
34.4774
34.4773
-2.63637
38.8201
50.3696
-3.40809
43.0361
62.7116
-4.12921
46.7284
72.801
-4.38195
50.0975
81.5452
-4.07394
53.3542
89.4288
-3.30575
56.5956
96.6701
-2.34998
59.856
103.387
-1.51941
63.1825
109.685
-0.995024
66.6476
115.676
-0.760853
70.3341
121.478
-0.699916
74.3366
127.225
-0.707795
78.7893
133.084
-0.725844
83.9117
139.277
-0.726456
90.0934
146.106
-0.698257
98.1269
153.995
-0.638348
109.894
163.509
-0.548188
130.725
175.11
-0.433973
178.773
187.289
-0.30459
164.76
185.686
-0.160233
37.0522
134.083
-0.0530213
39.0092
115.772
-0.0340791
34.7853
101.484
-0.0204561
29.5515
91.7391
-0.0123303
24.3204
85.0607
-0.00754774
19.2477
80.3896
-0.00466381
14.3189
77.1079
-0.00293497
9.49307
74.864
-0.00191132
4.7313
73.4575
-0.00132943
72.7788
-0.00106418
1.78543
42.3445
-0.0715158
3.4623
41.9907
-0.048604
4.92416
41.3029
-0.0102837
6.08217
40.3095
0.0399191
6.85787
39.0442
0.0994744
7.17151
37.5464
0.166203
6.91891
35.8693
0.233864
5.9315
34.109
0.283711
3.93073
32.4795
0.26872
23.3666
31.4594
0.110356
50.3697
38.82
-3.4081
51.1621
51.162
-1.91218
53.1255
62.3027
-1.70648
55.4726
72.023
-1.68203
57.9811
80.5649
-1.60258
60.5956
88.1909
-1.42175
63.3125
95.1026
-1.17375
66.154
101.454
-0.921343
69.1734
107.372
-0.713587
72.4496
112.964
-0.567873
76.0808
118.323
-0.478307
80.1957
123.538
-0.429324
84.9824
128.701
-0.404071
90.7407
133.907
-0.387301
97.9822
139.232
-0.367173
107.641
144.671
-0.335715
121.495
149.944
-0.289212
142.904
153.929
-0.228411
177.169
153.181
-0.156339
113.158
138.853
-0.0724694
18.741
117.604
-0.0212117
24.7216
109.807
-0.0155716
25.04
101.176
-0.0103569
22.8731
93.9128
-0.00668287
19.6493
88.289
-0.00426599
15.966
84.0757
-0.00274743
12.075
81.0007
-0.00181538
8.08665
78.8536
-0.00123133
4.05252
77.4925
-0.000880355
76.832
-0.000707729
1.43165
44.0103
0.0132157
2.77445
43.7344
0.034947
3.93076
43.2006
0.0713547
4.81692
42.4359
0.119596
5.36005
41.4765
0.176563
5.4944
40.3724
0.237194
5.15858
39.1985
0.287287
4.30199
38.0769
0.289406
2.91061
37.2212
0.161333
30.7273
36.9159
-0.20508
62.7117
43.036
-4.12922
62.3028
53.1254
-1.70648
62.8458
62.8458
-1.08922
64.0144
71.7433
-0.890257
65.6071
79.7701
-0.798493
67.5073
87.0091
-0.719053
69.6639
93.5744
-0.628868
72.0722
99.5776
-0.532007
74.7655
105.119
-0.43976
77.8085
110.282
-0.36119
81.2954
115.136
-0.300872
85.3587
119.733
-0.258707
90.1883
124.104
-0.231317
96.0657
128.243
-0.212973
103.422
132.072
-0.197023
112.914
135.356
-0.177703
125.481
137.529
-0.151913
142.156
137.374
-0.119093
162.842
132.575
-0.07987
91.9088
119.732
-0.0344577
10.944
108.489
-0.00874526
16.091
104.667
-0.00700198
17.7764
99.4963
-0.00506885
17.2493
94.4436
-0.00347658
15.436
90.1048
-0.00233336
12.891
86.6223
-0.00159285
9.92793
83.9649
-0.00110316
6.72559
82.0567
-0.000764461
3.39198
80.8267
-0.000546051
80.2244
-0.00043576
1.15571
45.8498
0.0832428
2.24064
45.6447
0.106011
3.16604
45.2521
0.143481
3.8575
44.6977
0.191664
4.25597
44.0181
0.245907
4.32048
43.2655
0.295741
4.03699
42.5157
0.31481
3.44626
41.8874
0.241799
2.60535
41.5373
-0.0496648
36.8475
41.592
-0.665735
72.8011
46.7284
-4.38195
72.0231
55.4726
-1.68203
71.7434
64.0144
-0.890257
72.0412
72.0411
-0.595346
72.8461
79.4339
-0.468969
74.0726
86.182
-0.399776
75.6671
92.3272
-0.347733
77.6133
97.931
-0.29992
79.929
103.057
-0.254643
82.6625
107.761
-0.213503
85.8921
112.085
-0.178757
89.7293
116.048
-0.151847
94.3276
119.638
-0.132518
99.895
122.794
-0.118539
106.706
125.369
-0.106872
115.087
127.07
-0.0946725
125.326
127.371
-0.0800543
137.357
125.405
-0.0622531
149.998
119.976
-0.0410225
80.666
110.012
-0.0169046
7.12224
102.968
-0.00377668
10.9201
100.873
-0.00318062
12.7237
97.6953
-0.00243524
12.9105
94.2588
-0.00175097
11.9534
91.0632
-0.00124796
10.2336
88.343
-0.000901986
8.0198
86.1793
-0.000637713
5.49556
84.5815
-0.000433792
2.78971
83.5329
-0.000302335
83.0143
-0.00024947
0.950631
47.8254
0.147394
1.84808
47.6852
0.17215
2.61163
47.4219
0.211409
3.17784
47.0593
0.259134
3.50335
46.6313
0.307164
3.57074
46.1854
0.337229
3.40871
45.793
0.308194
3.09615
45.5538
0.127761
2.65998
45.5621
-0.351928
41.9839
45.7287
-1.21043
81.5453
50.0975
-4.07394
80.5649
57.981
-1.60258
79.7701
65.607
-0.798493
79.434
72.8461
-0.468969
79.5942
79.5942
-0.321223
80.2179
85.8049
-0.247278
81.2709
91.4769
-0.203553
82.7394
96.634
-0.171948
84.6332
101.309
-0.145862
86.986
105.531
-0.123078
89.8548
109.319
-0.103488
93.3196
112.67
-0.0875173
97.4836
115.549
-0.0752359
102.47
117.874
-0.0659125
108.407
119.49
-0.0582878
115.387
120.141
-0.0508503
123.36
119.44
-0.0424182
131.928
116.871
-0.0326341
140.034
111.892
-0.0212422
73.6217
104.269
-0.00849284
5.02701
99.4004
-0.00170396
7.74275
98.1584
-0.00145581
9.28716
96.1522
-0.00114224
9.71486
93.832
-0.000857598
9.23326
91.5454
-0.000652206
8.06996
89.5067
-0.000486186
6.42192
87.8278
-0.00033226
4.44696
86.5567
-0.000210622
2.27117
85.7087
-0.000146485
85.2855
-0.000137415
0.810458
49.9015
0.209865
1.58483
49.8218
0.236765
2.24901
49.6784
0.276916
2.74981
49.492
0.321254
3.05741
49.2911
0.356359
3.1784
49.1189
0.354607
3.16945
49.0378
0.25383
3.10453
49.1108
-0.0694985
2.82655
49.3843
-0.749242
46.3527
49.5142
-1.70196
89.4288
53.3542
-3.30575
88.1909
60.5955
-1.42175
87.0092
67.5073
-0.719053
86.1821
74.0726
-0.399776
85.8049
80.2178
-0.247278
85.8899
85.8899
-0.170515
86.4279
91.0671
-0.128706
87.4141
95.7504
-0.102954
88.8554
99.9516
-0.0849926
90.7738
103.682
-0.0708926
93.2058
106.946
-0.0592582
96.199
109.726
-0.0498912
99.8085
111.982
-0.042602
104.086
113.633
-0.036889
109.058
114.55
-0.0320865
114.686
114.541
-0.0275231
120.791
113.359
-0.0226552
126.95
110.728
-0.0172219
132.41
106.443
-0.01105
68.7533
100.539
-0.00429243
3.78508
96.9776
-0.00077263
5.73651
96.2078
-0.00065209
6.96695
94.9224
-0.000511076
7.42823
93.3711
-0.000403585
7.19463
91.7792
-0.000320017
6.39098
90.3106
-0.00022577
5.15084
89.0681
-0.000129352
3.59903
88.1085
-6.60481e-05
1.84795
87.4597
-4.66899e-05
87.1334
-5.01788e-05
0.730721
52.0458
0.271777
1.44146
52.0239
0.299956
2.06261
51.9943
0.33832
2.54889
51.9734
0.373886
2.88517
51.9863
0.386899
3.09736
52.0701
0.335385
3.24247
52.2698
0.131651
3.378
52.6143
-0.350876
2.95648
53.0389
-1.22807
50.1926
53.1167
-1.99525
96.6702
56.5956
-2.34997
95.1027
63.3125
-1.17375
93.5745
69.6638
-0.628868
92.3273
75.667
-0.347733
91.477
81.2708
-0.203553
91.0671
86.4279
-0.128706
91.1112
91.1112
-0.0885154
91.6153
95.3124
-0.0655425
92.5862
99.0322
-0.0513706
94.037
102.273
-0.0416117
95.9864
105.03
-0.0342115
98.455
107.286
-0.0285648
101.46
109.001
-0.0242113
105.002
110.111
-0.0207575
109.05
110.519
-0.0178023
113.504
110.101
-0.0149962
118.16
108.715
-0.0121236
122.665
106.233
-0.00906337
126.506
102.608
-0.00572187
65.1923
97.9531
-0.00215525
3.0153
95.2536
-0.000321424
4.45108
94.7724
-0.000251336
5.41567
93.958
-0.000190373
5.83636
92.9505
-0.000150236
5.72602
91.8896
-0.000101284
5.14844
90.8882
-3.25558e-05
4.19128
90.0252
2.7034e-05
2.95025
89.3494
5.37703e-05
1.52163
88.8882
6.08948e-05
88.655
7.33755e-05
0.708882
54.2278
0.331066
1.41185
54.2631
0.358509
2.04173
54.3458
0.390826
2.56173
54.4902
0.41024
2.969
54.7164
0.386532
3.297
55.0507
0.258132
3.58702
55.5035
-0.083442
3.80261
56.0851
-0.740481
3.03429
56.5415
-1.73786
53.6715
56.6333
-2.0331
103.387
59.856
-1.51941
101.454
66.154
-0.921343
99.5777
72.0722
-0.532007
97.9311
77.6133
-0.29992
96.634
82.7394
-0.171948
95.7504
87.4141
-0.102954
95.3124
91.6153
-0.0655425
95.3351
95.3351
-0.0448865
95.8269
98.5732
-0.0329655
96.7944
101.331
-0.0254639
98.2422
103.603
-0.020231
100.17
105.374
-0.0165706
102.569
106.616
-0.0138835
105.41
107.281
-0.0117332
108.632
107.308
-0.00982492
112.117
106.623
-0.00807468
115.679
105.16
-0.00643725
119.04
102.877
-0.00476988
121.851
99.7995
-0.00295978
62.4929
96.057
-0.0010429
2.53409
93.9571
-5.90256e-05
3.63666
93.6699
-1.43178e-05
4.40816
93.1865
1.79193e-05
4.7755
92.583
4.85063e-05
4.72466
91.9404
9.78012e-05
4.28538
91.3274
0.000155886
3.51549
90.7948
0.000196522
2.48902
90.3756
0.000217995
1.28841
90.0886
0.000241715
89.9432
0.000276714
0.744126
56.4182
0.382512
1.4946
56.514
0.406513
2.18611
56.7166
0.426651
2.78795
57.0367
0.417149
3.30327
57.4862
0.333117
3.74981
58.0675
0.0925711
4.16863
58.7755
-0.399915
4.25895
59.5285
-1.24484
3.12615
59.9657
-2.18495
56.8941
60.1238
-1.88905
109.685
63.1825
-0.995024
107.372
69.1734
-0.713587
105.119
74.7655
-0.43976
103.057
79.929
-0.254643
101.309
84.6332
-0.145862
99.9516
88.8553
-0.0849926
99.0322
92.5861
-0.0513706
98.5732
95.8269
-0.0329655
98.5843
98.5843
-0.0226161
99.0665
100.864
-0.016405
100.014
102.668
-0.012383
101.412
103.986
-0.00977318
103.234
104.801
-0.00797306
105.437
105.084
-0.00658927
107.947
104.802
-0.00539101
110.654
103.921
-0.00436691
113.396
102.421
-0.00346718
115.962
100.312
-0.0025301
118.109
97.6549
-0.00149386
60.3929
94.5761
-0.000409983
2.24692
92.906
0.000151234
3.15318
92.7636
0.000191754
3.80475
92.5347
0.000226951
4.13282
92.2547
0.000271282
4.11168
91.9612
0.000333627
3.75282
91.6858
0.000398525
3.09625
91.4509
0.000452064
2.202
91.2693
0.000500867
1.14307
91.1471
0.000553646
91.0859
0.000600725
0.839878
58.5925
0.418112
1.69726
58.7576
0.433752
2.5062
59.0953
0.429974
3.23745
59.6098
0.369983
3.88455
60.2964
0.19283
4.45779
61.1314
-0.187082
4.92165
62.0921
-0.848257
4.69621
62.9488
-1.83191
3.28424
63.4245
-2.464
59.9528
63.6606
-1.69756
115.676
66.6476
-0.760853
112.964
72.4496
-0.567873
110.282
77.8084
-0.36119
107.761
82.6625
-0.213503
105.531
86.986
-0.123078
103.682
90.7738
-0.0708926
102.273
94.037
-0.0416117
101.331
96.7944
-0.0254639
100.864
99.0665
-0.016405
100.87
100.87
-0.0110525
101.332
102.213
-0.00782143
102.227
103.098
-0.00588918
103.518
103.515
-0.00468132
105.155
103.451
-0.00379181
107.066
102.894
-0.00302026
109.154
101.836
-0.00240176
111.287
100.289
-0.0018811
113.305
98.2943
-0.00130561
115.03
95.9309
-0.000652254
58.7228
93.3231
3.19426e-05
2.10452
91.964
0.000399686
2.92429
91.9435
0.000448907
3.52477
91.9338
0.000502005
3.83928
91.9397
0.000578823
3.83629
91.9635
0.000680617
3.51787
92.0034
0.000790929
2.9147
92.0531
0.000898407
2.07974
92.1033
0.00100026
1.08186
92.144
0.00108721
92.1667
0.00114154
1.00492
60.7302
0.421969
2.03501
60.9774
0.419281
3.02069
61.4702
0.371281
3.92406
62.1985
0.229371
4.71948
63.1319
-0.0749392
5.41852
64.2576
-0.59988
5.7783
65.4432
-1.43957
5.17191
66.3908
-2.41556
3.52038
67.0018
-2.49499
62.9398
67.3213
-1.53374
121.478
70.3341
-0.699916
118.323
76.0808
-0.478307
115.136
81.2954
-0.300872
112.085
85.8921
-0.178757
109.319
89.8548
-0.103488
106.946
93.2057
-0.0592582
105.03
95.9864
-0.0342115
103.603
98.2422
-0.020231
102.668
100.014
-0.012383
102.213
101.332
-0.00782143
102.216
102.216
-0.00522599
102.644
102.675
-0.00374337
103.454
102.707
-0.00286826
104.597
102.31
-0.00222935
106.009
101.484
-0.00169274
107.607
100.239
-0.0013065
109.292
98.6051
-0.000973348
110.942
96.6442
-0.00055411
112.422
94.4507
-6.22353e-05
57.3637
92.153
0.000462283
2.08401
91.0152
0.000762404
2.91458
91.1122
0.000826118
3.53064
91.3168
0.000927335
3.8631
91.6061
0.00108222
3.87617
91.9491
0.00127943
3.56756
92.3104
0.00149461
2.96493
92.6539
0.00170699
2.12045
92.9459
0.00189735
1.1046
93.1579
0.00204231
93.2693
0.00212155
1.25213
62.8092
0.363708
2.52776
63.1524
0.325526
3.74899
63.815
0.204288
4.8575
64.77
-0.0519017
5.84516
66.003
-0.484165
6.60415
67.4274
-1.17866
6.72584
68.8215
-2.1417
5.7829
69.9419
-2.87874
3.83988
70.754
-2.29203
65.9527
71.1809
-1.4035
127.225
74.3366
-0.707795
123.538
80.1957
-0.429324
119.733
85.3587
-0.258707
116.048
89.7293
-0.151847
112.67
93.3196
-0.0875173
109.726
96.199
-0.0498912
107.286
98.4549
-0.0285648
105.374
100.17
-0.0165706
103.986
101.412
-0.00977318
103.098
102.227
-0.00588917
102.675
102.644
-0.00374336
102.676
102.676
-0.00253741
103.057
102.327
-0.00184149
103.771
101.598
-0.00132633
104.763
100.493
-0.000914823
105.974
99.0286
-0.000631151
107.331
97.2482
-0.000345699
108.748
95.2261
3.97689e-05
110.124
93.0744
0.000490362
56.2259
90.9376
0.00100719
2.18097
89.9463
0.00133724
3.11922
90.1725
0.00144727
3.81993
90.6145
0.00166192
4.20606
91.218
0.00197731
4.23749
91.9153
0.0023634
3.9111
92.634
0.00278122
3.25693
93.3049
0.00319194
2.33244
93.8669
0.00355393
1.21599
94.2706
0.00382471
94.4814
0.00397237
1.59532
64.7941
0.194342
3.1904
65.239
0.0972686
4.70397
66.0902
-0.120752
6.09052
67.3225
-0.49083
7.26958
68.8746
-1.07698
7.99825
70.596
-1.92833
7.84621
72.2523
-2.86124
6.59495
73.685
-3.09867
4.26682
74.7525
-1.98966
69.1083
75.3344
-1.29414
133.084
78.7893
-0.725844
128.701
84.9824
-0.404071
124.104
90.1883
-0.231317
119.638
94.3276
-0.132518
115.549
97.4836
-0.0752359
111.982
99.8085
-0.042602
109.002
101.46
-0.0242113
106.616
102.569
-0.0138835
104.801
103.234
-0.00797305
103.515
103.518
-0.00468132
102.707
103.454
-0.00286826
102.328
103.057
-0.00184149
102.328
102.328
-0.00122069
102.665
101.262
-0.000735473
103.299
99.8591
-0.000365145
104.193
98.1349
-9.75786e-05
105.309
96.1327
0.000210911
106.597
93.9372
0.00062857
107.988
91.6824
0.00114531
55.2346
89.5477
0.00182678
2.40714
88.6307
0.00230381
3.56118
89.016
0.0025262
4.4235
89.7493
0.00296046
4.90328
90.7348
0.00357765
4.9562
91.8581
0.00432524
4.58205
93.003
0.00513903
3.81894
94.0622
0.00594481
2.73615
94.9432
0.00665801
1.42678
95.573
0.007194
95.9008
0.00748686
2.04021
66.6477
-0.137276
4.04162
67.2163
-0.303336
5.93624
68.284
-0.626828
7.6426
69.7975
-1.13895
8.99096
71.6615
-1.88037
9.65464
73.7123
-2.78997
9.27888
75.7701
-3.4498
7.66247
77.659
-2.98559
4.84864
79.0953
-1.7103
72.5633
79.9186
-1.19134
139.277
83.9117
-0.726456
133.907
90.7407
-0.387301
128.243
96.0657
-0.212973
122.794
99.895
-0.118539
117.874
102.47
-0.0659125
113.633
104.086
-0.036889
110.111
105.002
-0.0207575
107.281
105.41
-0.0117332
105.084
105.437
-0.00658927
103.451
105.155
-0.00379181
102.31
104.597
-0.00222935
101.598
103.771
-0.00132633
101.262
102.665
-0.000735473
101.262
101.262
-0.000264123
101.575
99.5469
8.33674e-05
102.191
97.5187
0.000379343
103.113
95.2102
0.000777125
104.342
92.7071
0.0013359
105.853
90.1694
0.00209404
54.3176
87.8376
0.00317601
2.79247
86.9099
0.00395074
4.29445
87.5097
0.00438759
5.40899
88.6296
0.00522888
6.02662
90.1108
0.0064187
6.10115
91.7758
0.00786987
5.64118
93.4536
0.00946713
4.69993
94.9925
0.0110636
3.36595
96.2648
0.0124863
1.75468
97.1708
0.0135604
97.6415
0.0141437
2.60882
68.3735
-0.662032
5.10933
69.0549
-0.923358
7.4497
70.3091
-1.3808
9.50659
72.0666
-2.03476
11.0417
74.239
-2.85333
11.7125
76.7138
-3.6161
11.1677
79.3463
-3.71964
9.09882
81.8603
-2.59537
5.6719
83.904
-1.47597
76.5564
85.1459
-1.08057
146.106
90.0934
-0.698257
139.232
97.9822
-0.367173
132.072
103.422
-0.197023
125.369
106.706
-0.106872
119.49
108.407
-0.0582878
114.55
109.058
-0.0320865
110.519
109.05
-0.0178023
107.308
108.632
-0.00982492
104.802
107.947
-0.005391
102.894
107.066
-0.00302026
101.484
106.009
-0.00169274
100.493
104.763
-0.000914822
99.8592
103.299
-0.000365144
99.5469
101.575
8.33678e-05
99.5469
99.5469
0.000452179
99.8826
97.1824
0.000872148
100.61
94.4816
0.00148707
101.804
91.5107
0.00236096
103.521
88.449
0.00359948
53.3899
85.6308
0.00540612
3.39232
84.5681
0.00671002
5.4143
85.4803
0.00754635
6.89022
87.1446
0.00915894
7.69158
89.298
0.0114503
7.779
91.6741
0.0142712
7.18003
94.0353
0.0174092
5.97227
96.1798
0.0205762
4.27196
97.9418
0.0234227
2.22536
99.1919
0.0255846
99.8402
0.0267566
3.29018
69.8835
-1.4766
6.36352
70.6213
-1.84501
9.20724
71.9876
-2.41735
11.679
73.9372
-3.12608
13.5165
76.4379
-3.82926
14.345
79.4421
-4.15356
13.6818
82.8105
-3.50556
11.1425
86.2463
-2.11851
6.91383
89.3494
-1.26333
81.5038
91.3926
-0.951611
153.995
98.1269
-0.638348
144.671
107.641
-0.335715
135.356
112.914
-0.177703
127.07
115.087
-0.0946725
120.141
115.387
-0.0508503
114.541
114.686
-0.0275231
110.101
113.504
-0.0149962
106.623
112.117
-0.00807468
103.921
110.654
-0.00436691
101.836
109.154
-0.00240176
100.239
107.607
-0.0013065
99.0286
105.974
-0.00063115
98.1349
104.193
-9.75775e-05
97.5187
102.191
0.000379344
97.1824
99.8826
0.000872148
97.1818
97.1818
0.00154344
97.6391
94.0223
0.00252557
98.7424
90.4039
0.00392691
100.703
86.4828
0.00596833
52.3272
82.7067
0.00900441
4.30449
81.2886
0.0112432
7.07861
82.6934
0.0128434
9.04369
85.1636
0.0159283
10.0677
88.2538
0.0203311
10.1401
91.576
0.0258015
9.32454
94.819
0.0319562
7.73431
97.7318
0.0382424
5.52208
100.11
0.0439553
2.87361
101.792
0.0483331
102.663
0.0507156
4.02797
70.9457
-2.63418
7.72988
71.6585
-3.05486
11.1568
73.0565
-3.61777
14.1796
75.1494
-4.16909
16.5208
77.9665
-4.46011
17.7134
81.5242
-4.07921
17.1175
85.7859
-2.86308
14.2456
90.6537
-1.67356
8.9571
95.6622
-1.04725
88.2381
99.3996
-0.799475
163.509
109.894
-0.548189
149.944
121.495
-0.289212
137.529
125.481
-0.151914
127.371
125.326
-0.0800543
119.44
123.36
-0.0424182
113.359
120.791
-0.0226552
108.715
118.16
-0.0121237
105.16
115.679
-0.00643725
102.421
113.396
-0.00346718
100.289
111.287
-0.0018811
98.6052
109.292
-0.000973347
97.2482
107.331
-0.000345698
96.1327
105.309
0.000210912
95.2102
103.113
0.000777126
94.4816
100.61
0.00148707
94.0224
97.6391
0.00252557
94.0206
94.0206
0.00405079
94.8214
89.5972
0.00627873
96.9267
84.3681
0.00961455
50.9091
78.8086
0.0146851
5.70926
76.5689
0.0185399
9.54886
78.8322
0.021605
12.1338
82.5512
0.0274852
13.3899
86.9618
0.0359097
13.3831
91.5364
0.0464825
12.2374
95.9061
0.0585394
10.1126
99.7856
0.0710338
7.20406
102.936
0.0825447
3.74459
105.16
0.0914642
106.311
0.0963523
4.7407
71.163
-3.94918
9.12795
71.8076
-4.25433
13.2497
73.177
-4.55545
16.9968
75.3203
-4.64539
20.0784
78.3193
-4.27201
21.9751
82.3255
-3.29262
21.9854
87.6307
-2.10255
19.2541
94.5876
-1.26665
12.6945
103.027
-0.81651
98.7323
110.765
-0.627194
175.11
130.725
-0.433973
153.929
142.904
-0.228411
137.374
142.156
-0.119094
125.405
137.357
-0.0622532
116.871
131.928
-0.0326341
110.728
126.95
-0.0172219
106.233
122.665
-0.00906337
102.877
119.04
-0.00476988
100.312
115.962
-0.0025301
98.2943
113.305
-0.00130561
96.6442
110.942
-0.000554109
95.2261
108.748
3.97705e-05
93.9372
106.597
0.000628572
92.7071
104.342
0.00133591
91.5108
101.804
0.00236096
90.4039
98.7424
0.00392691
89.5972
94.8214
0.00627873
89.5924
89.5924
0.00980656
91.3672
82.5782
0.015174
48.6694
73.7774
0.0234494
7.97254
69.5302
0.0299585
13.2678
73.5011
0.0358343
16.5444
79.2276
0.0469959
17.9645
85.4787
0.0630291
17.7529
91.6647
0.0833815
16.1169
97.4351
0.106964
13.2633
102.507
0.131826
9.42798
106.616
0.155104
4.89577
109.519
0.173382
111.024
0.183487
5.38531
70.1028
-4.75198
10.4974
70.6748
-4.71116
15.393
71.9269
-4.5031
19.9957
73.936
-4.00954
24.0846
76.8666
-3.19633
27.2803
81.086
-2.24227
28.9422
87.3021
-1.43756
27.6933
96.6993
-0.89112
20.4329
110.863
-0.581829
118.692
129.295
-0.447947
187.289
178.773
-0.30459
153.181