/*--------------------------------*- C++ -*----------------------------------*\
| =========                 |                                                 |
| \\      /  F ield         | OpenFOAM: The Open Source CFD Toolbox           |
|  \\    /   O peration     | Version:  2.1.0                                 |
|   \\  /    A nd           | Web:      www.OpenFOAM.org                      |
|    \\/     M anipulation  |                                                 |
\*---------------------------------------------------------------------------*/
FoamFile
{
    version     2.0;
    format      ascii;
    class       volScalarField;
    location    "12045";
    object      po;
}
// * * * * * * * * * * * * * * * * * * * * * * * * * * * * * * * * * * * * * //

dimensions      [1 -1 -2 0 0 0 0];

internalField   nonuniform List<scalar> 
8000
(
14327.2
14311.9
14286
14254
14218.9
14182.5
14145.4
14107.9
14069.9
14031.2
13991.5
13950.6
13908.3
13864.2
13818.4
13770.6
13720.7
13668.6
13614.4
13558
13499.4
13438.7
13375.8
13311
13244.4
13176
13106.1
13035.2
12964
12893.9
12826.5
12763.5
12706.1
12655.2
12611.2
12574.5
12545
12522.9
12508.2
12500.8
14311.9
14298.2
14274.4
14244.5
14211.2
14176.2
14140.3
14103.7
14066.5
14028.4
13989.3
13948.8
13906.8
13863.1
13817.4
13769.8
13719.9
13667.9
13613.6
13557.1
13498.4
13437.4
13374.2
13309
13241.8
13172.7
13102.1
13030.5
12958.6
12888
12820.1
12756.7
12699
12648
12603.9
12567.1
12537.6
12515.5
12500.8
12493.5
14286
14274.4
14253.8
14227.2
14196.8
14164.3
14130.5
14095.7
14059.9
14023
13984.9
13945.3
13904
13860.8
13815.6
13768.2
13718.5
13666.5
13612.2
13555.4
13496.3
13434.9
13371.1
13305
13236.7
13166.4
13094.4
13021.3
12948.2
12876.2
12807.3
12743.1
12684.9
12633.4
12589.1
12552.2
12522.8
12500.7
12486.1
12478.7
14254
14244.5
14227.2
14204.1
14177.3
14147.9
14116.7
14084.2
14050.5
14015.4
13978.8
13940.4
13900.1
13857.7
13813
13765.9
13716.4
13664.5
13610
13552.9
13493.3
13431.1
13366.4
13299
13229.2
13157.2
13083.2
13008.1
12932.8
12858.8
12788.2
12722.7
12663.5
12611.4
12566.9
12529.9
12500.5
12478.5
12463.9
12456.7
14218.9
14211.2
14196.8
14177.3
14153.9
14127.8
14099.7
14070
14038.7
14005.8
13971.1
13934.3
13895.3
13853.8
13809.8
13763.2
13713.9
13661.9
13607.2
13549.7
13489.4
13426.3
13360.3
13291.4
13219.7
13145.5
13069
12991.1
12912.8
12835.9
12762.7
12695.1
12634.6
12581.8
12536.9
12499.9
12470.7
12448.9
12434.5
12427.3
14182.5
14176.2
14164.3
14147.9
14127.8
14105.1
14080.2
14053.5
14025
13994.8
13962.3
13927.5
13889.9
13849.6
13806.3
13760.1
13711
13658.9
13603.9
13545.8
13484.7
13420.4
13353
13282.4
13208.7
13132
13052.5
12971
12888.7
12807.6
12730.4
12659.9
12597.6
12544
12499
12462.2
12433.3
12412
12397.8
12390.8
14145.4
14140.3
14130.5
14116.7
14099.7
14080.2
14058.5
14035.1
14009.8
13982.6
13952.9
13920.3
13884.4
13845.2
13802.7
13756.9
13707.9
13655.6
13600.1
13541.4
13479.3
13413.8
13345
13272.7
13197
13117.6
13034.8
12949
12861.4
12774.1
12690.8
12616
12551.6
12497.4
12452.7
12416.6
12388.4
12367.7
12354.1
12347.3
14107.9
14103.7
14095.7
14084.2
14070
14053.5
14035.1
14015
13993.4
13969.8
13943.5
13913.4
13879.3
13841.2
13799.3
13753.8
13704.7
13652
13596
13536.4
13473.5
13407.1
13337.1
13263.5
13185.8
13103.9
13017.7
12927
12832.5
12735.8
12642
12561.5
12495.3
12441.4
12397.8
12363
12336.1
12316.4
12303.4
12297
14069.9
14066.5
14059.9
14050.5
14038.7
14025
14009.8
13993.4
13975.8
13956.6
13934.7
13907.5
13875
13837.8
13796.2
13750.7
13701.3
13648.2
13591.7
13531.7
13468.3
13401.3
13330.6
13255.8
13176.7
13092.8
13003.5
12907.8
12804.8
12693.9
12579.7
12492.7
12426.6
12374.9
12333.9
12301.6
12276.6
12258.3
12246.3
12240.3
14031.2
14028.4
14023
14015.4
14005.8
13994.8
13982.6
13969.8
13956.6
13943.2
13928.2
13903.5
13872.1
13835.2
13793.6
13747.8
13698.3
13645.2
13588.6
13528.4
13464.8
13397.5
13326.3
13251
13171
13085.9
12994.5
12895.1
12784.3
12655
12489.9
12402.7
12343.3
12297.7
12261.5
12232.7
12210.3
12193.9
12183
12177.6
13991.5
13989.3
13984.9
13978.8
13971.1
13962.3
13952.9
13943.5
13934.7
13928.2
13914.6
13880.2
13841.3
13798.3
13751.6
13701.5
13648.1
13591.5
13531.7
13468.5
13401.8
13331.5
13257.2
13178.4
13094.5
13004.4
12906.3
12796.4
12665.6
12486.9
12322.1
12285.1
12246
12211.3
12181.7
12157.4
12138.1
12123.8
12114.3
12109.6
13950.6
13948.8
13945.3
13940.4
13934.3
13927.5
13920.3
13913.4
13907.5
13903.5
13880.2
13829.8
13778.6
13725.5
13670
13612.1
13551.5
13488.1
13422
13352.8
13280.4
13204.3
13124.1
13039.1
12948.4
12850.4
12742.7
12621.3
12478.3
12301.2
12188
12169.3
12144.6
12119.5
12096.6
12077
12061
12049
12040.9
12036.8
13908.3
13906.8
13904
13900.1
13895.3
13889.9
13884.4
13879.3
13875
13872.1
13841.3
13778.6
13716.3
13653.5
13589.5
13523.9
13456.4
13386.7
13314.6
13239.9
13162
13080.8
12995.4
12905.2
12809.1
12705.7
12592.8
12467.3
12325.2
12162.3
12070.4
12059.5
12043.4
12025.6
12008.4
11992.9
11980
11970.1
11963.4
11960
13864.2
13863.1
13860.8
13857.7
13853.8
13849.6
13845.2
13841.2
13837.8
13835.2
13798.3
13725.5
13653.5
13581.7
13509.7
13436.9
13362.8
13287.1
13209.5
13129.6
13046.9
12961
12871.3
12777
12677.1
12570.4
12455.3
12329.9
12192.6
12042.6
11961.9
11954.8
11943.9
11931.2
11918.3
11906.3
11896.1
11888
11882.5
11879.8
13818.4
13817.4
13815.6
13813
13809.8
13806.3
13802.7
13799.3
13796.2
13793.6
13751.6
13670
13589.5
13509.7
13430.3
13350.7
13270.5
13189.2
13106.4
13021.8
12934.8
12845
12751.7
12654.2
12551.7
12443.3
12327.9
12204.5
12072.6
11932.6
11859
11853.9
11846.2
11836.9
11827.2
11818
11809.9
11803.5
11799
11796.7
13770.6
13769.8
13768.2
13765.9
13763.2
13760.1
13756.9
13753.8
13750.7
13747.8
13701.5
13612.1
13523.9
13436.9
13350.7
13264.9
13179
13092.6
13005.1
12916.3
12825.5
12732.3
12636.1
12536.3
12432.2
12323.1
12208.5
12087.7
11960.7
11828.3
11759.6
11755.8
11750
11743.1
11735.6
11728.4
11722.1
11716.9
11713.3
11711.5
13720.7
13719.9
13718.5
13716.4
13713.9
13711
13707.9
13704.7
13701.3
13698.3
13648.1
13551.5
13456.4
13362.8
13270.5
13179
13087.9
12996.8
12905.2
12812.6
12718.6
12622.6
12524.1
12422.7
12317.7
12208.6
12095.1
11976.9
11854.3
11727.8
11662.6
11659.6
11655.1
11649.7
11643.9
11638.1
11633
11628.8
11625.8
11624.3
13668.6
13667.9
13666.5
13664.5
13661.9
13658.9
13655.6
13652
13648.2
13645.2
13591.5
13488.1
13386.7
13287.1
13189.2
13092.6
12996.8
12901.5
12806.2
12710.3
12613.5
12515.3
12415.1
12312.5
12207.1
12098.5
11986.4
11870.7
11751.7
11629.8
11567.3
11564.8
11561.2
11556.7
11552
11547.2
11543
11539.4
11537
11535.7
13614.4
13613.6
13612.2
13610
13607.2
13603.9
13600.1
13596
13591.7
13588.6
13531.7
13422
13314.6
13209.5
13106.4
13005.1
12905.2
12806.2
12707.6
12609
12509.9
12409.9
12308.5
12205.3
12099.8
11991.9
11881.2
11767.8
11651.9
11533.8
11473.4
11471.1
11468
11464.2
11460
11455.9
11452.2
11449.1
11446.9
11445.7
13558
13557.1
13555.4
13552.9
13549.7
13545.8
13541.4
13536.4
13531.7
13528.4
13468.5
13352.8
13239.9
13129.6
13021.8
12916.3
12812.6
12710.3
12609
12508.1
12407.3
12305.9
12203.7
12100.2
11995
11888
11778.8
11667.5
11554.2
11439.2
11380.5
11378.4
11375.4
11371.9
11368.1
11364.2
11360.7
11357.8
11355.7
11354.6
13499.4
13498.4
13496.3
13493.3
13489.4
13484.7
13479.3
13473.5
13468.3
13464.8
13401.8
13280.4
13162
13046.9
12934.8
12825.5
12718.6
12613.5
12509.9
12407.3
12305
12202.8
12100.2
11996.7
11892.1
11786.1
11678.5
11569.2
11458.3
11345.9
11288.5
11286.4
11283.5
11280
11276.1
11272.2
11268.7
11265.7
11263.6
11262.5
13438.7
13437.4
13434.9
13431.1
13426.3
13420.4
13413.8
13407.1
13401.3
13397.5
13331.5
13204.3
13080.8
12961
12845
12732.3
12622.6
12515.3
12409.9
12305.9
12202.8
12100.2
11997.5
11894.4
11790.7
11685.9
11579.9
11472.6
11363.8
11253.7
11197.5
11195.3
11192.2
11188.4
11184.2
11179.9
11176
11172.8
11170.4
11169.2
13375.8
13374.2
13371.1
13366.4
13360.3
13353
13345
13337.1
13330.6
13326.3
13257.2
13124.1
12995.4
12871.3
12751.7
12636.1
12524.1
12415.1
12308.5
12203.7
12100.2
11997.5
11895.2
11792.8
11690.2
11586.9
11482.7
11377.4
11270.8
11162.8
11107.5
11105.1
11101.6
11097.1
11092.2
11087.3
11082.7
11078.9
11076.2
11074.7
13311
13309
13305
13299
13291.4
13282.4
13272.7
13263.5
13255.8
13251
13178.4
13039.1
12905.2
12777
12654.2
12536.3
12422.7
12312.5
12205.3
12100.2
11996.7
11894.4
11792.8
11691.6
11590.3
11488.7
11386.5
11283.4
11179.1
11073.2
11018.9
11016.1
11011.8
11006.4
11000.4
10994.3
10988.6
10983.9
10980.6
10978.8
13244.4
13241.8
13236.7
13229.2
13219.7
13208.7
13197
13185.8
13176.7
13171
13094.5
12948.4
12809.1
12677.1
12551.7
12432.2
12317.7
12207.1
12099.8
11995
11892.1
11790.7
11690.2
11590.3
11490.8
11391.2
11291.3
11190.7
11088.9
10985.4
10932
10928.6
10923.2
10916.3
10908.6
10900.8
10893.7
10887.7
10883.4
10881.2
13176
13172.7
13166.4
13157.2
13145.5
13132
13117.6
13103.9
13092.8
13085.9
13004.4
12850.4
12705.7
12570.4
12443.3
12323.1
12208.6
12098.5
11991.9
11888
11786.1
11685.9
11586.9
11488.7
11391.2
11294
11196.8
11099.2
11000.5
10899.8
10847.4
10843.1
10836
10827
10816.9
10806.8
10797.5
10789.7
10784.2
10781.3
13106.1
13102.1
13094.4
13083.2
13069
13052.5
13034.8
13017.7
13003.5
12994.5
12906.3
12742.7
12592.8
12455.3
12327.9
12208.5
12095.1
11986.4
11881.2
11778.8
11678.5
11579.9
11482.7
11386.5
11291.3
11196.8
11102.8
11008.8
10914
10817.1
10766.1
10760.4
10750.9
10738.8
10725.4
10712
10699.7
10689.6
10682.4
10678.7
13035.2
13030.5
13021.3
13008.1
12991.1
12971
12949
12927
12907.8
12895.1
12796.4
12621.3
12467.3
12329.9
12204.5
12087.7
11976.9
11870.7
11767.8
11667.5
11569.2
11472.6
11377.4
11283.4
11190.7
11099.2
11008.8
10919.2
10829.6
10738.2
10689.6
10681.6
10668.3
10651.8
10633.8
10616.1
10600
10586.7
10577.3
10572.4
12964
12958.6
12948.2
12932.8
12912.8
12888.7
12861.4
12832.5
12804.8
12784.3
12665.6
12478.3
12325.2
12192.6
12072.6
11960.7
11854.3
11751.7
11651.9
11554.2
11458.3
11363.8
11270.8
11179.1
11088.9
11000.5
10914
10829.6
10747
10664.5
10620
10608.1
10589.1
10566.3
10542.2
10518.6
10497.4
10480.1
10467.7
10461.3
12893.9
12888
12876.2
12858.8
12835.9
12807.6
12774.1
12735.8
12693.9
12655
12486.9
12301.2
12162.3
12042.6
11932.6
11828.3
11727.8
11629.8
11533.8
11439.2
11345.9
11253.7
11162.8
11073.2
10985.4
10899.8
10817.1
10738.2
10664.5
10596.1
10561.6
10541.7
10513.8
10482.3
10450
10419.1
10391.4
10368.7
10352.6
10344.3
12826.5
12820.1
12807.3
12788.2
12762.7
12730.4
12690.8
12642
12579.7
12489.9
12322.1
12188
12070.4
11961.9
11859
11759.6
11662.6
11567.3
11473.4
11380.5
11288.5
11197.5
11107.5
11018.9
10932
10847.4
10766.1
10689.6
10620
10561.6
10522.5
10483.4
10442.1
10399.3
10356.8
10316.6
10280.7
10251.3
10230.4
10219.5
12763.5
12756.7
12743.1
12722.7
12695.1
12659.9
12616
12561.5
12492.7
12402.7
12285.1
12169.3
12059.5
11954.8
11853.9
11755.8
11659.6
11564.8
11471.1
11378.4
11286.4
11195.3
11105.1
11016.1
10928.6
10843.1
10760.4
10681.6
10608.1
10541.7
10483.4
10427.6
10372
10316.3
10261.8
10210.4
10164.4
10126.5
10099.3
10085.1
12706.1
12699
12684.9
12663.5
12634.6
12597.6
12551.6
12495.3
12426.6
12343.3
12246
12144.6
12043.4
11943.9
11846.2
11750
11655.1
11561.2
11468
11375.4
11283.5
11192.2
11101.6
11011.8
10923.2
10836
10750.9
10668.3
10589.1
10513.8
10442.1
10372
10302.2
10232.7
10164.6
10099.9
10041.4
9992.79
9957.59
9939.05
12655.2
12648
12633.4
12611.4
12581.8
12544
12497.4
12441.4
12374.9
12297.8
12211.3
12119.5
12025.6
11931.2
11836.9
11743.1
11649.7
11556.7
11464.2
11371.9
11280
11188.4
11097.1
11006.4
10916.3
10827
10738.8
10651.8
10566.3
10482.3
10399.3
10316.3
10232.7
10148.7
10065.3
9985.09
9911.49
9849.2
9803.48
9779.14
12611.2
12603.9
12589.1
12566.9
12536.9
12499
12452.7
12397.8
12333.9
12261.5
12181.7
12096.6
12008.4
11918.3
11827.2
11735.6
11643.9
11552
11460
11368.1
11276.1
11184.2
11092.2
11000.4
10908.6
10816.9
10725.4
10633.8
10542.2
10450
10356.8
10261.8
10164.6
10065.3
9965.29
9867.09
9775.12
9695.6
9636.06
9603.9
12574.5
12567.1
12552.2
12529.9
12499.9
12462.2
12416.6
12363
12301.6
12232.7
12157.4
12077
11992.9
11906.3
11818
11728.4
11638.1
11547.2
11455.9
11364.2
11272.2
11179.9
11087.3
10994.3
10900.8
10806.8
10712
10616.1
10518.6
10419.1
10316.6
10210.4
10099.9
9985.09
9867.09
9748.64
9634.87
9533.86
9456.31
9413.61
12545
12537.6
12522.8
12500.5
12470.7
12433.3
12388.4
12336.1
12276.6
12210.3
12138.1
12061
11980
11896.1
11809.9
11722.1
11633
11543
11452.2
11360.7
11268.7
11176
11082.7
10988.6
10893.7
10797.5
10699.7
10600
10497.4
10391.4
10280.7
10164.4
10041.4
9911.49
9775.12
9634.87
9496.36
9369.56
9269.23
9212.6
12522.9
12515.5
12500.7
12478.5
12448.9
12412
12367.7
12316.4
12258.3
12193.9
12123.8
12049
11970.1
11888
11803.5
11716.9
11628.8
11539.4
11449.1
11357.8
11265.7
11172.8
11078.9
10983.9
10887.7
10789.7
10689.6
10586.7
10480.1
10368.7
10251.3
10126.5
9992.79
9849.2
9695.6
9533.86
9369.56
9214.24
9087.07
9013.09
12508.2
12500.8
12486.1
12463.9
12434.5
12397.8
12354.1
12303.4
12246.3
12183
12114.3
12040.9
11963.4
11882.5
11799
11713.3
11625.8
11537
11446.9
11355.7
11263.6
11170.4
11076.2
10980.6
10883.4
10784.2
10682.4
10577.3
10467.7
10352.6
10230.4
10099.3
9957.59
9803.48
9636.06
9456.31
9269.23
9087.07
8932.84
8840.12
12500.8
12493.5
12478.7
12456.7
12427.3
12390.8
12347.3
12297
12240.3
12177.6
12109.6
12036.8
11960
11879.8
11796.7
11711.5
11624.3
11535.7
11445.7
11354.6
11262.5
11169.2
11074.7
10978.8
10881.2
10781.3
10678.7
10572.4
10461.3
10344.3
10219.5
10085.1
9939.05
9779.14
9603.9
9413.61
9212.6
9013.09
8840.12
8733.35
14350.3
14329.7
14297.9
14261.5
14223.5
14185.3
14147.1
14108.9
14070.5
14031.5
13991.7
13950.7
13908.2
13864.2
13818.2
13770.4
13720.4
13668.3
13614
13557.6
13499
13438.3
13375.6
13311.2
13245.1
13177.5
13108.8
13039.1
12968.8
12898.1
12829
12764.7
12706.7
12655.5
12611.4
12574.6
12545.1
12522.9
12508.2
12500.8
14329.7
14312.4
14284.3
14250.9
14215.2
14178.7
14141.8
14104.7
14067
14028.7
13989.4
13948.9
13906.8
13863
13817.3
13769.5
13719.6
13667.6
13613.2
13556.7
13498
13437.1
13374.1
13309.3
13242.7
13174.6
13105.2
13034.7
12963.4
12891.7
12822.3
12757.8
12699.6
12648.3
12604
12567.1
12537.6
12515.5
12500.8
12493.5
14297.9
14284.3
14261
14232.1
14200
14166.4
14131.8
14096.5
14060.4
14023.3
13985.1
13945.4
13904
13860.7
13815.4
13767.9
13718.2
13666.1
13611.7
13555
13496
13434.7
13371.2
13305.6
13238.1
13168.8
13098
13025.9
12952.7
12879.5
12809.1
12744.1
12685.4
12633.7
12589.3
12552.3
12522.8
12500.7
12486.1
12478.7
14261.5
14250.9
14232.1
14207.6
14179.6
14149.4
14117.7
14084.9
14050.8
14015.6
13978.8
13940.4
13900
13857.5
13812.7
13765.6
13716.1
13664
13609.5
13552.6
13493.1
13431.2
13366.8
13300.2
13231.3
13160.3
13087.4
13012.7
12936.8
12861.4
12789.7
12723.4
12663.9
12611.7
12567
12530
12500.5
12478.5
12464
12456.7
14223.5
14215.2
14200
14179.6
14155.6
14128.9
14100.5
14070.4
14039
14005.9
13971.1
13934.2
13895.1
13853.6
13809.5
13762.8
13713.5
13661.5
13606.8
13549.5
13489.5
13426.7
13361.3
13293.3
13222.6
13149.3
13073.5
12995.4
12916
12837.9
12763.8
12695.7
12634.9
12581.9
12537
12500
12470.7
12448.9
12434.5
12427.4
14185.3
14178.7
14166.4
14149.4
14128.9
14105.8
14080.7
14053.8
14025.2
13994.8
13962.3
13927.3
13889.7
13849.3
13806
13759.8
13710.7
13658.7
13603.8
13546
13485.3
13421.6
13354.9
13285.2
13212.3
13136.1
13056.6
12974.3
12890.9
12809
12731.2
12660.3
12597.8
12544.1
12499
12462.3
12433.3
12412
12397.9
12390.8
14147.1
14141.8
14131.8
14117.7
14100.5
14080.7
14058.8
14035.2
14009.9
13982.5
13952.8
13920.1
13884.2
13844.9
13802.4
13756.7
13707.8
13655.7
13600.5
13542.2
13480.7
13416
13347.9
13276.2
13200.7
13121.1
13037.7
12951.1
12862.8
12775
12691.3
12616.3
12551.8
12497.5
12452.7
12416.6
12388.5
12367.7
12354.1
12347.3
14108.9
14104.7
14096.5
14084.9
14070.4
14053.8
14035.2
14015.1
13993.3
13969.6
13943.2
13913.1
13879
13841
13799.2
13753.8
13705
13652.8
13597.2
13538.3
13475.9
13410
13340.2
13266.4
13188.4
13106.1
13019.4
12928.3
12833.3
12736.3
12642.3
12561.7
12495.4
12441.4
12397.8
12363
12336.1
12316.4
12303.4
12297
14070.5
14067
14060.4
14050.8
14039
14025.2
14009.9
13993.3
13975.6
13956.4
13934.4
13907.2
13874.8
13837.8
13796.6
13751.4
13702.5
13650
13593.9
13534.2
13470.8
13403.6
13332.5
13257.5
13178.2
13094.1
13004.5
12908.6
12805.3
12694.3
12579.9
12492.8
12426.6
12374.9
12334
12301.6
12276.6
12258.3
12246.3
12240.3
14031.5
14028.7
14023.3
14015.6
14005.9
13994.8
13982.5
13969.6
13956.4
13942.9
13927.9
13903.4
13872.3
13835.8
13794.8
13749.5
13700.3
13647.2
13590.5
13530.1
13466.3
13398.9
13327.6
13252.1
13172.1
13086.8
12995.3
12895.7
12784.8
12655.3
12490.1
12402.8
12343.3
12297.8
12261.5
12232.7
12210.3
12193.9
12183
12177.6
13991.7
13989.4
13985.1
13978.8
13971.1
13962.3
13952.8
13943.2
13934.4
13927.9
13917.3
13883.6
13845.5
13802.7
13755.7
13704.8
13650.5
13593.1
13532.7
13469.3
13402.5
13332.2
13257.9
13179.1
13095.2
13005
12906.8
12796.8
12665.9
12487
12322.2
12285.1
12246.1
12211.3
12181.7
12157.4
12138.1
12123.8
12114.3
12109.6
13950.7
13948.9
13945.4
13940.4
13934.2
13927.3
13920.1
13913.1
13907.2
13903.4
13883.6
13831.7
13780.3
13727.2
13671.6
13613.5
13552.6
13489.1
13422.7
13353.4
13280.8
13204.7
13124.5
13039.5
12948.7
12850.7
12743
12621.5
12478.5
12301.3
12188
12169.3
12144.6
12119.5
12096.6
12077
12061
12049
12040.9
12036.8
13908.2
13906.8
13904
13900
13895.1
13889.7
13884.2
13879
13874.8
13872.3
13845.5
13780.3
13717.4
13654.4
13590.3
13524.6
13457
13387.2
13315.1
13240.2
13162.3
13081
12995.6
12905.4
12809.3
12705.9
12593
12467.4
12325.2
12162.4
12070.4
12059.5
12043.4
12025.6
12008.4
11992.9
11980
11970.1
11963.4
11960
13864.2
13863
13860.7
13857.5
13853.6
13849.3
13844.9
13841
13837.8
13835.8
13802.7
13727.2
13654.4
13582.3
13510.2
13437.3
13363.1
13287.4
13209.8
13129.8
13047.1
12961.2
12871.4
12777.1
12677.2
12570.5
12455.4
12330
12192.6
12042.6
11961.9
11954.8
11943.9
11931.2
11918.3
11906.3
11896.1
11888
11882.5
11879.8
13818.2
13817.3
13815.4
13812.7
13809.5
13806
13802.4
13799.2
13796.6
13794.8
13755.7
13671.6
13590.3
13510.2
13430.6
13350.9
13270.7
13189.4
13106.6
13021.9
12934.9
12845.1
12751.7
12654.2
12551.8
12443.3
12327.9
12204.6
12072.6
11932.6
11859
11853.9
11846.2
11836.9
11827.2
11818
11809.9
11803.5
11799
11796.7
13770.4
13769.5
13767.9
13765.6
13762.8
13759.8
13756.7
13753.8
13751.4
13749.5
13704.8
13613.5
13524.6
13437.3
13350.9
13265
13179.1
13092.7
13005.2
12916.4
12825.6
12732.4
12636.1
12536.3
12432.2
12323.2
12208.5
12087.7
11960.7
11828.3
11759.6
11755.8
11750
11743.1
11735.6
11728.4
11722.1
11716.9
11713.3
11711.5
13720.4
13719.6
13718.2
13716.1
13713.5
13710.7
13707.8
13705
13702.5
13700.3
13650.5
13552.6
13457
13363.1
13270.7
13179.1
13088
12996.9
12905.2
12812.6
12718.6
12622.6
12524.1
12422.7
12317.7
12208.6
12095.1
11977
11854.3
11727.8
11662.6
11659.6
11655.1
11649.7
11643.9
11638.1
11633
11628.8
11625.8
11624.3
13668.3
13667.6
13666.1
13664
13661.5
13658.7
13655.7
13652.8
13650
13647.2
13593.1
13489.1
13387.2
13287.4
13189.4
13092.7
12996.9
12901.5
12806.2
12710.4
12613.6
12515.3
12415.1
12312.6
12207.1
12098.5
11986.4
11870.7
11751.7
11629.8
11567.3
11564.8
11561.2
11556.7
11552
11547.2
11543
11539.4
11537
11535.7
13614
13613.2
13611.7
13609.6
13606.8
13603.8
13600.5
13597.2
13593.9
13590.5
13532.7
13422.7
13315.1
13209.8
13106.6
13005.2
12905.2
12806.2
12707.6
12609
12509.9
12409.9
12308.5
12205.3
12099.8
11991.9
11881.2
11767.8
11651.9
11533.8
11473.4
11471.1
11468
11464.2
11460
11455.9
11452.2
11449.1
11446.9
11445.7
13557.6
13556.7
13555
13552.6
13549.5
13546
13542.2
13538.3
13534.2
13530.1
13469.3
13353.4
13240.2
13129.8
13021.9
12916.4
12812.6
12710.4
12609
12508.1
12407.3
12305.9
12203.7
12100.2
11995
11888
11778.8
11667.5
11554.2
11439.2
11380.5
11378.4
11375.4
11371.9
11368.1
11364.2
11360.7
11357.8
11355.7
11354.6
13499
13498
13496
13493.1
13489.5
13485.3
13480.7
13475.9
13470.8
13466.3
13402.5
13280.8
13162.3
13047.1
12934.9
12825.6
12718.6
12613.6
12509.9
12407.3
12305.1
12202.8
12100.2
11996.7
11892.1
11786.1
11678.5
11569.2
11458.3
11345.9
11288.5
11286.4
11283.5
11280
11276.1
11272.2
11268.7
11265.7
11263.6
11262.5
13438.3
13437.1
13434.7
13431.2
13426.7
13421.6
13416
13410
13403.6
13398.9
13332.2
13204.7
13081
12961.2
12845.1
12732.4
12622.6
12515.3
12409.9
12305.9
12202.8
12100.2
11997.5
11894.4
11790.7
11685.9
11579.9
11472.6
11363.8
11253.7
11197.5
11195.3
11192.2
11188.4
11184.2
11179.9
11176
11172.8
11170.4
11169.2
13375.6
13374.1
13371.2
13366.8
13361.3
13354.9
13347.9
13340.2
13332.5
13327.6
13257.9
13124.5
12995.6
12871.4
12751.7
12636.1
12524.1
12415.1
12308.5
12203.7
12100.2
11997.5
11895.2
11792.8
11690.2
11586.9
11482.7
11377.4
11270.8
11162.8
11107.5
11105.1
11101.6
11097.1
11092.2
11087.3
11082.7
11078.9
11076.1
11074.7
13311.2
13309.3
13305.6
13300.2
13293.3
13285.2
13276.2
13266.4
13257.5
13252.1
13179.1
13039.5
12905.4
12777.1
12654.2
12536.3
12422.7
12312.6
12205.3
12100.2
11996.7
11894.4
11792.8
11691.6
11590.3
11488.7
11386.5
11283.4
11179.1
11073.2
11018.9
11016.1
11011.8
11006.4
11000.4
10994.3
10988.6
10983.9
10980.6
10978.8
13245.1
13242.7
13238.1
13231.3
13222.6
13212.3
13200.7
13188.4
13178.2
13172.1
13095.2
12948.7
12809.3
12677.2
12551.8
12432.2
12317.7
12207.1
12099.8
11995
11892.1
11790.7
11690.2
11590.3
11490.8
11391.2
11291.3
11190.7
11088.9
10985.4
10932
10928.6
10923.2
10916.3
10908.6
10900.8
10893.6
10887.7
10883.4
10881.2
13177.5
13174.6
13168.8
13160.3
13149.3
13136.1
13121.1
13106.1
13094.1
13086.8
13005
12850.7
12705.9
12570.5
12443.3
12323.2
12208.6
12098.5
11991.9
11888
11786.1
11685.9
11586.9
11488.7
11391.2
11294
11196.8
11099.2
11000.5
10899.7
10847.4
10843.1
10836
10827
10816.9
10806.8
10797.4
10789.7
10784.2
10781.3
13108.8
13105.2
13098
13087.4
13073.5
13056.6
13037.7
13019.4
13004.5
12995.3
12906.8
12743
12593
12455.4
12327.9
12208.5
12095.1
11986.4
11881.2
11778.8
11678.5
11579.9
11482.7
11386.5
11291.3
11196.8
11102.8
11008.8
10914
10817
10766.1
10760.4
10750.9
10738.7
10725.3
10711.9
10699.7
10689.5
10682.3
10678.6
13039.1
13034.7
13025.9
13012.7
12995.4
12974.3
12951.1
12928.3
12908.6
12895.7
12796.8
12621.5
12467.4
12330
12204.6
12087.7
11977
11870.7
11767.8
11667.5
11569.2
11472.6
11377.4
11283.4
11190.7
11099.2
11008.8
10919.2
10829.6
10738.2
10689.5
10681.6
10668.3
10651.7
10633.7
10616
10599.8
10586.5
10577.1
10572.2
12968.8
12963.4
12952.7
12936.8
12916
12890.9
12862.8
12833.3
12805.3
12784.8
12665.9
12478.5
12325.2
12192.6
12072.6
11960.7
11854.3
11751.7
11651.9
11554.2
11458.3
11363.8
11270.8
11179.1
11088.9
11000.5
10914
10829.6
10747
10664.4
10620
10608
10589
10566.2
10542
10518.4
10497.2
10479.8
10467.4
10461
12898.1
12891.7
12879.5
12861.4
12837.9
12809
12775
12736.3
12694.3
12655.3
12487
12301.3
12162.4
12042.6
11932.6
11828.3
11727.8
11629.8
11533.8
11439.2
11345.9
11253.7
11162.8
11073.2
10985.4
10899.7
10817
10738.2
10664.4
10596.1
10561.6
10541.6
10513.6
10482.1
10449.8
10418.7
10390.9
10368.2
10352
10343.6
12829
12822.3
12809.1
12789.7
12763.8
12731.2
12691.3
12642.3
12579.9
12490.1
12322.2
12188
12070.4
11961.9
11859
11759.6
11662.6
11567.3
11473.4
11380.5
11288.5
11197.5
11107.5
11018.9
10932
10847.4
10766.1
10689.5
10620
10561.6
10522.4
10483.3
10441.8
10399
10356.3
10315.9
10279.9
10250.3
10229.2
10218.2
12764.7
12757.8
12744.1
12723.4
12695.7
12660.3
12616.3
12561.7
12492.8
12402.8
12285.1
12169.3
12059.5
11954.8
11853.9
11755.8
11659.6
11564.8
11471.1
11378.4
11286.4
11195.3
11105.1
11016.1
10928.6
10843.1
10760.4
10681.6
10608
10541.6
10483.3
10427.4
10371.6
10315.8
10261
10209.3
10162.9
10124.6
10097.1
10082.7
12706.7
12699.6
12685.4
12663.9
12634.9
12597.8
12551.8
12495.4
12426.6
12343.3
12246.1
12144.6
12043.4
11943.9
11846.2
11750
11655.1
11561.2
11468
11375.4
11283.5
11192.2
11101.6
11011.8
10923.2
10836
10750.9
10668.3
10589
10513.6
10441.8
10371.6
10301.6
10231.8
10163.2
10097.9
10038.7
9989.23
9953.31
9934.34
12655.5
12648.3
12633.7
12611.7
12581.9
12544.1
12497.5
12441.4
12374.9
12297.8
12211.3
12119.5
12025.6
11931.2
11836.9
11743.1
11649.7
11556.7
11464.2
11371.9
11280
11188.4
11097.1
11006.4
10916.3
10827
10738.7
10651.7
10566.2
10482.1
10399
10315.8
10231.8
10147.2
10063.1
9981.66
9906.59
9842.65
9795.41
9770.12
12611.4
12604
12589.3
12567
12537
12499
12452.7
12397.8
12334
12261.5
12181.7
12096.6
12008.4
11918.3
11827.2
11735.6
11643.9
11552
11460
11368.1
11276.1
11184.2
11092.2
11000.4
10908.6
10816.9
10725.3
10633.7
10542
10449.8
10356.3
10261
10163.2
10063.1
9961.59
9861.32
9766.57
9683.74
9621.01
9586.79
12574.6
12567.1
12552.3
12530
12500
12462.3
12416.6
12363
12301.6
12232.7
12157.4
12077
11992.9
11906.3
11818
11728.4
11638.1
11547.2
11455.9
11364.2
11272.2
11179.9
11087.3
10994.3
10900.8
10806.8
10711.9
10616
10518.4
10418.7
10315.9
10209.3
10097.9
9981.66
9861.32
9739.26
9620.38
9512.94
9428.8
9381.63
12545.1
12537.6
12522.8
12500.5
12470.7
12433.3
12388.5
12336.1
12276.6
12210.3
12138.1
12061
11980
11896.1
11809.9
11722.1
11633
11543
11452.2
11360.7
11268.7
11176
11082.7
10988.6
10893.6
10797.4
10699.7
10599.8
10497.2
10390.9
10279.9
10162.9
10038.7
9906.59
9766.57
9620.38
9472.93
9334.14
9220.62
9154.46
12522.9
12515.5
12500.7
12478.5
12448.9
12412
12367.7
12316.4
12258.3
12193.9
12123.8
12049
11970.1
11888
11803.5
11716.9
11628.8
11539.4
11449.1
11357.8
11265.7
11172.8
11078.9
10983.9
10887.7
10789.7
10689.5
10586.5
10479.8
10368.2
10250.3
10124.6
9989.23
9842.65
9683.74
9512.94
9334.14
9157.91
9005.94
8912.58
12508.2
12500.8
12486.1
12464
12434.5
12397.9
12354.1
12303.4
12246.3
12183
12114.3
12040.9
11963.4
11882.5
11799
11713.3
11625.8
11537
11446.9
11355.7
11263.6
11170.4
11076.1
10980.6
10883.4
10784.2
10682.3
10577.1
10467.4
10352
10229.2
10097.1
9953.31
9795.41
9621.01
9428.8
9220.62
9005.94
8809.81
8681.21
12500.8
12493.5
12478.7
12456.7
12427.4
12390.8
12347.3
12297
12240.3
12177.6
12109.6
12036.8
11960
11879.8
11796.7
11711.5
11624.3
11535.7
11445.7
11354.6
11262.5
11169.2
11074.7
10978.8
10881.2
10781.3
10678.6
10572.2
10461
10343.6
10218.2
10082.7
9934.34
9770.12
9586.79
9381.63
9154.46
8912.58
8681.21
8519.81
14404.2
14366.9
14320.6
14274.8
14231.3
14189.8
14149.8
14110.5
14071.5
14032.1
13992
13950.9
13908.3
13864.2
13818.2
13770.2
13720.2
13668.1
13613.8
13557.3
13498.8
13438.2
13375.7
13311.4
13245.7
13178.6
13110.6
13041.9
12972.7
12903.2
12833.8
12767.5
12707.9
12656.1
12611.7
12574.7
12545.1
12523
12508.2
12500.9
14366.9
14340.2
14302.4
14262.1
14222
14182.7
14144.3
14106.1
14067.9
14029.3
13989.7
13949
13906.9
13863
13817.2
13769.4
13719.5
13667.3
13613
13556.5
13497.8
13437
13374.2
13309.7
13243.4
13175.8
13107.2
13037.7
12967.6
12897.1
12826.9
12760.3
12700.7
12648.8
12604.3
12567.3
12537.7
12515.6
12500.8
12493.5
14320.6
14302.4
14273.7
14240.4
14205.3
14169.6
14133.8
14097.7
14061.1
14023.8
13985.3
13945.5
13904
13860.7
13815.3
13767.7
13718
13665.9
13611.5
13554.8
13495.9
13434.7
13371.4
13306.1
13239
13170.3
13100.4
13029.3
12957.4
12884.9
12813.2
12746.1
12686.3
12634.1
12589.5
12552.4
12522.9
12500.8
12486.1
12478.8
14274.8
14262.1
14240.4
14213.4
14183.4
14151.9
14119.3
14085.9
14051.5
14016
13979
13940.5
13900
13857.4
13812.6
13765.4
13715.8
13663.8
13609.4
13552.4
13493.1
13431.3
13367.3
13300.9
13232.5
13162.2
13090.2
13016.8
12942.1
12866.7
12793.1
12725.1
12664.6
12612
12567.2
12530.1
12500.6
12478.6
12464
12456.7
14231.3
14222
14205.3
14183.4
14158.2
14130.7
14101.6
14071.2
14039.4
14006.2
13971.2
13934.3
13895.1
13853.5
13809.3
13762.6
13713.3
13661.3
13606.7
13549.5
13489.6
13427.1
13362.1
13294.4
13224.3
13151.8
13077
13000.2
12921.6
12842.5
12766.4
12696.9
12635.4
12582.2
12537.1
12500.1
12470.7
12449
12434.5
12427.4
14189.8
14182.7
14169.6
14151.9
14130.7
14107.1
14081.5
14054.3
14025.5
13994.9
13962.3
13927.3
13889.6
13849.1
13805.8
13759.6
13710.5
13658.6
13603.8
13546.2
13485.7
13422.4
13356.1
13286.9
13214.7
13139.4
13061
12979.7
12896
12812.4
12732.9
12661.1
12598.2
12544.3
12499.1
12462.3
12433.4
12412
12397.9
12390.9
14149.8
14144.3
14133.8
14119.3
14101.6
14081.5
14059.4
14035.6
14010.1
13982.6
13952.7
13920
13884
13844.8
13802.3
13756.6
13707.8
13655.9
13600.9
13542.8
13481.6
13417.2
13349.6
13278.6
13203.9
13125.4
13042.7
12955.9
12866.4
12777
12692.3
12616.8
12552
12497.7
12452.8
12416.7
12388.5
12367.7
12354.1
12347.3
14110.5
14106.1
14097.7
14085.9
14071.2
14054.3
14035.6
14015.3
13993.4
13969.6
13943.1
13913
13878.9
13840.9
13799.2
13754
13705.3
13653.3
13598
13539.4
13477.4
13412
13342.9
13269.8
13192.4
13110.3
13023.1
12931.2
12835.2
12737.4
12642.9
12562
12495.5
12441.5
12397.8
12363.1
12336.1
12316.4
12303.4
12297
14071.5
14067.9
14061.1
14051.5
14039.4
14025.5
14010.1
13993.4
13975.6
13956.3
13934.3
13907.1
13874.8
13837.9
13796.8
13751.9
13703.3
13651.1
13595.4
13536.1
13473.2
13406.5
13335.8
13260.8
13181.1
13096.6
13006.5
12910.1
12806.4
12694.9
12580.2
12492.9
12426.7
12375
12334
12301.6
12276.6
12258.3
12246.3
12240.3
14032.1
14029.3
14023.8
14016
14006.2
13994.9
13982.6
13969.6
13956.3
13942.8
13927.8
13903.3
13872.3
13836.1
13795.3
13750.5
13701.8
13649.2
13592.9
13532.7
13468.9
13401.3
13329.8
13254.2
13174
13088.5
12996.7
12896.8
12785.5
12655.8
12490.3
12402.9
12343.4
12297.8
12261.6
12232.7
12210.3
12193.9
12183
12177.6
13992
13989.7
13985.3
13979
13971.2
13962.3
13952.7
13943.1
13934.3
13927.8
13918.7
13885.8
13848.4
13806.2
13759.6
13709
13654.6
13596.6
13535.5
13471.3
13404
13333.4
13259
13180.2
13096.3
13006.1
12907.7
12797.5
12666.4
12487.3
12322.2
12285.1
12246.1
12211.3
12181.7
12157.4
12138.1
12123.8
12114.3
12109.6
13950.9
13949
13945.5
13940.5
13934.3
13927.3
13920
13913
13907.1
13903.3
13885.8
13833.5
13782.1
13729.1
13673.6
13615.5
13554.5
13490.8
13424.1
13354.5
13281.7
13205.5
13125.2
13040.1
12949.3
12851.3
12743.5
12621.9
12478.8
12301.4
12188.1
12169.3
12144.6
12119.5
12096.7
12077
12061
12049
12040.9
12036.8
13908.3
13906.9
13904
13900
13895.1
13889.6
13884
13878.9
13874.8
13872.3
13848.4
13782.1
13718.8
13655.6
13591.4
13525.7
13458
13388.1
13315.8
13240.9
13162.9
13081.4
12996
12905.8
12809.7
12706.2
12593.2
12467.6
12325.4
12162.4
12070.4
12059.5
12043.4
12025.6
12008.4
11992.9
11980
11970.1
11963.4
11960
13864.2
13863
13860.7
13857.4
13853.5
13849.1
13844.8
13840.9
13837.9
13836.1
13806.2
13729.1
13655.6
13583.2
13510.9
13437.9
13363.7
13287.9
13210.2
13130.1