/*--------------------------------*- C++ -*----------------------------------*\
| =========                 |                                                 |
| \\      /  F ield         | OpenFOAM: The Open Source CFD Toolbox           |
|  \\    /   O peration     | Version:  2.1.0                                 |
|   \\  /    A nd           | Web:      www.OpenFOAM.org                      |
|    \\/     M anipulation  |                                                 |
\*---------------------------------------------------------------------------*/
FoamFile
{
    version     2.0;
    format      ascii;
    class       volScalarField;
    location    "12045";
    object      so;
}
// * * * * * * * * * * * * * * * * * * * * * * * * * * * * * * * * * * * * * //

dimensions      [0 0 0 0 0 0 0];

internalField   nonuniform List<scalar> 
8000
(
0.345498
0.361738
0.38072
0.400369
0.419717
0.438353
0.456077
0.47281
0.488547
0.503329
0.517235
0.530363
0.542789
0.554607
0.565975
0.577055
0.588015
0.59903
0.610284
0.621973
0.634338
0.64766
0.66223
0.678255
0.696156
0.716363
0.738633
0.761199
0.780388
0.792571
0.797862
0.799497
0.799899
0.799982
0.799997
0.8
0.8
0.8
0.8
0.8
0.361737
0.375964
0.392888
0.410779
0.428739
0.446292
0.463186
0.479292
0.494568
0.509026
0.522723
0.535735
0.548109
0.559955
0.571431
0.582703
0.593945
0.605337
0.617069
0.62936
0.642469
0.656679
0.672221
0.689212
0.707998
0.728584
0.750082
0.770276
0.785955
0.794979
0.798596
0.799672
0.799934
0.799989
0.799998
0.8
0.8
0.8
0.8
0.8
0.380721
0.392886
0.407671
0.42367
0.440065
0.456365
0.472278
0.487637
0.502365
0.516444
0.5299
0.542769
0.555075
0.566953
0.578558
0.590055
0.601624
0.613445
0.62572
0.638686
0.652606
0.667713
0.684082
0.701887
0.721224
0.741565
0.761479
0.778661
0.790688
0.796869
0.799147
0.799801
0.79996
0.799993
0.799999
0.8
0.8
0.8
0.8
0.8
0.400368
0.41078
0.42367
0.437926
0.452822
0.467887
0.482821
0.497441
0.511639
0.52537
0.538624
0.551371
0.56367
0.575656
0.587483
0.59932
0.611346
0.623746
0.636741
0.650573
0.665461
0.681476
0.698694
0.717202
0.736575
0.755706
0.772901
0.786258
0.794498
0.798242
0.799527
0.799889
0.799977
0.799996
0.799999
0.8
0.8
0.8
0.8
0.8
0.419717
0.428739
0.440065
0.452822
0.466391
0.48035
0.494415
0.508397
0.522177
0.535682
0.548835
0.561588
0.574033
0.5863
0.598547
0.610943
0.623668
0.636931
0.650959
0.665946
0.681937
0.699008
0.717164
0.735913
0.754186
0.770565
0.783676
0.79254
0.797233
0.799137
0.799764
0.799943
0.799988
0.799998
0.8
0.8
0.8
0.8
0.8
0.8
0.438352
0.446292
0.456365
0.467886
0.48035
0.493394
0.506767
0.520298
0.533864
0.547353
0.560613
0.573645
0.586529
0.599396
0.612405
0.625732
0.639584
0.654176
0.669663
0.686074
0.703529
0.721852
0.740313
0.757693
0.772701
0.784397
0.792351
0.796829
0.798863
0.799636
0.799895
0.799973
0.799994
0.799999
0.8
0.8
0.8
0.8
0.8
0.8
0.456077
0.463186
0.472277
0.482821
0.494415
0.506767
0.51968
0.53302
0.546678
0.560473
0.57431
0.588121
0.601961
0.615968
0.630317
0.645221
0.660876
0.677375
0.694869
0.713338
0.732222
0.750359
0.766345
0.779151
0.788393
0.79427
0.797481
0.798991
0.799624
0.799869
0.799958
0.799988
0.799997
0.799999
0.8
0.8
0.8
0.8
0.8
0.8
0.47281
0.479292
0.487637
0.49744
0.508397
0.520298
0.53302
0.546503
0.560658
0.57547
0.590817
0.606337
0.622051
0.638146
0.654845
0.672297
0.690717
0.710151
0.730039
0.749089
0.765694
0.77873
0.787945
0.793769
0.797032
0.798669
0.799426
0.799759
0.7999
0.79996
0.799985
0.799995
0.799999
0.8
0.8
0.8
0.8
0.8
0.8
0.8
0.488547
0.494568
0.502365
0.511639
0.522177
0.533864
0.546678
0.560658
0.576075
0.593347
0.61249
0.631645
0.651034
0.670944
0.691655
0.713208
0.734779
0.754652
0.771015
0.782981
0.790791
0.795361
0.797786
0.798981
0.799542
0.799796
0.799908
0.799958
0.79998
0.79999
0.799995
0.799998
0.799999
0.8
0.8
0.8
0.8
0.8
0.8
0.8
0.503329
0.509026
0.516444
0.52537
0.535682
0.547353
0.560473
0.57547
0.593347
0.616391
0.648648
0.676138
0.702594
0.727977
0.750812
0.769245
0.782364
0.790622
0.795292
0.797728
0.798935
0.799512
0.799781
0.799903
0.799957
0.799981
0.799991
0.799995
0.799997
0.799998
0.799998
0.799999
0.8
0.8
0.8
0.8
0.8
0.8
0.8
0.8
0.517235
0.522723
0.529899
0.538624
0.548834
0.560612
0.57431
0.590817
0.61249
0.648648
0.794502
0.797363
0.798092
0.798772
0.799279
0.799606
0.799797
0.7999
0.799953
0.799978
0.79999
0.799996
0.799998
0.799999
0.8
0.8
0.8
0.8
0.8
0.8
0.799999
0.8
0.8
0.8
0.8
0.8
0.8
0.8
0.8
0.8
0.530363
0.535735
0.542769
0.551371
0.561588
0.573645
0.58812
0.606337
0.631645
0.676138
0.797363
0.799954
0.799982
0.799988
0.799993
0.799996
0.799998
0.799999
0.8
0.8
0.8
0.8
0.8
0.8
0.8
0.8
0.8
0.8
0.8
0.8
0.8
0.8
0.8
0.8
0.8
0.8
0.8
0.8
0.8
0.8
0.542789
0.548109
0.555075
0.56367
0.574033
0.586529
0.601961
0.622051
0.651034
0.702594
0.798092
0.799982
0.8
0.8
0.8
0.8
0.8
0.8
0.8
0.8
0.8
0.8
0.8
0.8
0.8
0.8
0.8
0.8
0.8
0.8
0.8
0.8
0.8
0.8
0.8
0.8
0.8
0.8
0.8
0.8
0.554607
0.559955
0.566953
0.575656
0.5863
0.599396
0.615968
0.638146
0.670944
0.727977
0.798772
0.799988
0.8
0.8
0.8
0.8
0.8
0.8
0.8
0.8
0.8
0.8
0.8
0.8
0.8
0.8
0.8
0.8
0.8
0.8
0.8
0.8
0.8
0.8
0.8
0.8
0.8
0.8
0.8
0.8
0.565975
0.571431
0.578557
0.587483
0.598547
0.612405
0.630317
0.654845
0.691655
0.750812
0.799279
0.799993
0.8
0.8
0.8
0.8
0.8
0.8
0.8
0.8
0.8
0.8
0.8
0.8
0.8
0.8
0.8
0.8
0.8
0.8
0.8
0.8
0.8
0.8
0.8
0.8
0.8
0.8
0.8
0.8
0.577055
0.582703
0.590055
0.59932
0.610943
0.625732
0.645221
0.672297
0.713208
0.769245
0.799606
0.799996
0.8
0.8
0.8
0.8
0.8
0.8
0.8
0.8
0.8
0.8
0.8
0.8
0.8
0.8
0.8
0.8
0.8
0.8
0.8
0.8
0.8
0.8
0.8
0.8
0.8
0.8
0.8
0.8
0.588015
0.593944
0.601624
0.611346
0.623668
0.639584
0.660876
0.690717
0.734779
0.782364
0.799797
0.799998
0.8
0.8
0.8
0.8
0.8
0.8
0.8
0.8
0.8
0.8
0.8
0.8
0.8
0.8
0.8
0.8
0.8
0.8
0.8
0.8
0.8
0.8
0.8
0.8
0.8
0.8
0.8
0.8
0.59903
0.605337
0.613445
0.623746
0.636931
0.654176
0.677375
0.710151
0.754652
0.790622
0.7999
0.799999
0.8
0.8
0.8
0.8
0.8
0.8
0.8
0.8
0.8
0.8
0.8
0.8
0.8
0.8
0.8
0.8
0.8
0.8
0.8
0.8
0.8
0.8
0.8
0.8
0.8
0.8
0.8
0.8
0.610284
0.617069
0.62572
0.636741
0.650959
0.669663
0.694869
0.730039
0.771015
0.795292
0.799953
0.8
0.8
0.8
0.8
0.8
0.8
0.8
0.8
0.8
0.8
0.8
0.8
0.8
0.8
0.8
0.8
0.8
0.8
0.8
0.8
0.8
0.8
0.8
0.8
0.8
0.8
0.8
0.8
0.8
0.621973
0.62936
0.638686
0.650573
0.665946
0.686074
0.713338
0.749089
0.782981
0.797728
0.799978
0.8
0.8
0.8
0.8
0.8
0.8
0.8
0.8
0.8
0.8
0.8
0.8
0.8
0.8
0.8
0.8
0.8
0.8
0.8
0.8
0.8
0.8
0.8
0.8
0.8
0.8
0.8
0.8
0.8
0.634338
0.642469
0.652606
0.665461
0.681937
0.703529
0.732222
0.765694
0.790791
0.798935
0.79999
0.8
0.8
0.8
0.8
0.8
0.8
0.8
0.8
0.8
0.8
0.8
0.8
0.8
0.8
0.8
0.8
0.8
0.8
0.8
0.8
0.8
0.8
0.8
0.8
0.8
0.8
0.8
0.8
0.8
0.64766
0.656679
0.667713
0.681476
0.699008
0.721852
0.750358
0.77873
0.795361
0.799512
0.799996
0.8
0.8
0.8
0.8
0.8
0.8
0.8
0.8
0.8
0.8
0.8
0.8
0.8
0.8
0.8
0.8
0.8
0.8
0.8
0.8
0.8
0.8
0.8
0.8
0.8
0.8
0.8
0.8
0.8
0.66223
0.672221
0.684082
0.698694
0.717164
0.740313
0.766345
0.787945
0.797786
0.799781
0.799998
0.8
0.8
0.8
0.8
0.8
0.8
0.8
0.8
0.8
0.8
0.8
0.8
0.8
0.8
0.8
0.8
0.8
0.8
0.8
0.8
0.8
0.8
0.8
0.8
0.8
0.8
0.8
0.8
0.8
0.678255
0.689212
0.701887
0.717202
0.735913
0.757693
0.779151
0.793769
0.798981
0.799903
0.799999
0.8
0.8
0.8
0.8
0.8
0.8
0.8
0.8
0.8
0.8
0.8
0.8
0.8
0.8
0.8
0.8
0.8
0.8
0.8
0.8
0.8
0.8
0.8
0.8
0.8
0.8
0.8
0.8
0.8
0.696156
0.707998
0.721224
0.736575
0.754186
0.772701
0.788393
0.797031
0.799542
0.799957
0.8
0.8
0.8
0.8
0.8
0.8
0.8
0.8
0.8
0.8
0.8
0.8
0.8
0.8
0.8
0.8
0.8
0.8
0.8
0.8
0.8
0.8
0.8
0.8
0.8
0.8
0.8
0.8
0.8
0.8
0.716363
0.728583
0.741565
0.755706
0.770565
0.784397
0.79427
0.798669
0.799796
0.799981
0.8
0.8
0.8
0.8
0.8
0.8
0.8
0.8
0.8
0.8
0.8
0.8
0.8
0.8
0.8
0.8
0.8
0.8
0.8
0.8
0.8
0.8
0.8
0.8
0.8
0.8
0.8
0.8
0.8
0.8
0.738633
0.750082
0.761479
0.772901
0.783676
0.792351
0.797481
0.799426
0.799908
0.799991
0.8
0.8
0.8
0.8
0.8
0.8
0.8
0.8
0.8
0.8
0.8
0.8
0.8
0.8
0.8
0.8
0.8
0.8
0.8
0.8
0.8
0.8
0.8
0.8
0.8
0.8
0.8
0.8
0.8
0.8
0.761199
0.770276
0.778661
0.786258
0.79254
0.796829
0.798991
0.799759
0.799958
0.799995
0.8
0.8
0.8
0.8
0.8
0.8
0.8
0.8
0.8
0.8
0.8
0.8
0.8
0.8
0.8
0.8
0.8
0.8
0.8
0.8
0.8
0.8
0.8
0.8
0.8
0.8
0.8
0.8
0.8
0.8
0.780388
0.785955
0.790688
0.794498
0.797233
0.798863
0.799624
0.7999
0.79998
0.799997
0.8
0.8
0.8
0.8
0.8
0.8
0.8
0.8
0.8
0.8
0.8
0.8
0.8
0.8
0.8
0.8
0.8
0.8
0.8
0.8
0.8
0.8
0.8
0.8
0.8
0.8
0.8
0.8
0.8
0.8
0.792571
0.794979
0.796869
0.798242
0.799137
0.799636
0.799869
0.79996
0.79999
0.799998
0.8
0.8
0.8
0.8
0.8
0.8
0.8
0.8
0.8
0.8
0.8
0.8
0.8
0.8
0.8
0.8
0.8
0.8
0.8
0.8
0.8
0.8
0.8
0.8
0.8
0.8
0.8
0.8
0.8
0.8
0.797862
0.798596
0.799147
0.799527
0.799764
0.799895
0.799958
0.799985
0.799995
0.799998
0.799999
0.8
0.8
0.8
0.8
0.8
0.8
0.8
0.8
0.8
0.8
0.8
0.8
0.8
0.8
0.8
0.8
0.8
0.8
0.8
0.8
0.8
0.8
0.8
0.8
0.8
0.8
0.8
0.8
0.8
0.799497
0.799672
0.799801
0.799889
0.799943
0.799973
0.799988
0.799995
0.799998
0.799999
0.8
0.8
0.8
0.8
0.8
0.8
0.8
0.8
0.8
0.8
0.8
0.8
0.8
0.8
0.8
0.8
0.8
0.8
0.8
0.8
0.8
0.8
0.8
0.8
0.8
0.8
0.8
0.8
0.8
0.8
0.799899
0.799934
0.79996
0.799977
0.799988
0.799994
0.799997
0.799999
0.799999
0.8
0.8
0.8
0.8
0.8
0.8
0.8
0.8
0.8
0.8
0.8
0.8
0.8
0.8
0.8
0.8
0.8
0.8
0.8
0.8
0.8
0.8
0.8
0.8
0.8
0.8
0.8
0.8
0.8
0.8
0.8
0.799982
0.799989
0.799993
0.799996
0.799998
0.799999
0.799999
0.8
0.8
0.8
0.8
0.8
0.8
0.8
0.8
0.8
0.8
0.8
0.8
0.8
0.8
0.8
0.8
0.8
0.8
0.8
0.8
0.8
0.8
0.8
0.8
0.8
0.8
0.8
0.8
0.8
0.8
0.8
0.8
0.8
0.799997
0.799998
0.799999
0.799999
0.8
0.8
0.8
0.8
0.8
0.8
0.8
0.8
0.8
0.8
0.8
0.8
0.8
0.8
0.8
0.8
0.8
0.8
0.8
0.8
0.8
0.8
0.8
0.8
0.8
0.8
0.8
0.8
0.8
0.8
0.8
0.8
0.8
0.8
0.8
0.8
0.8
0.8
0.8
0.8
0.8
0.8
0.8
0.8
0.8
0.8
0.8
0.8
0.8
0.8
0.8
0.8
0.8
0.8
0.8
0.8
0.8
0.8
0.8
0.8
0.8
0.8
0.8
0.8
0.8
0.8
0.8
0.8
0.8
0.8
0.8
0.8
0.8
0.8
0.8
0.8
0.8
0.8
0.8
0.8
0.8
0.8
0.8
0.8
0.8
0.8
0.8
0.8
0.8
0.8
0.8
0.8
0.8
0.8
0.8
0.8
0.8
0.8
0.8
0.8
0.8
0.8
0.8
0.8
0.8
0.8
0.8
0.8
0.8
0.8
0.8
0.8
0.8
0.8
0.8
0.8
0.8
0.8
0.8
0.8
0.8
0.8
0.8
0.8
0.8
0.8
0.8
0.8
0.8
0.8
0.8
0.8
0.8
0.8
0.8
0.8
0.8
0.8
0.8
0.8
0.8
0.8
0.8
0.8
0.8
0.8
0.8
0.8
0.8
0.8
0.8
0.8
0.8
0.8
0.8
0.8
0.8
0.8
0.8
0.8
0.8
0.8
0.8
0.8
0.8
0.8
0.8
0.8
0.8
0.8
0.8
0.8
0.8
0.8
0.8
0.8
0.8
0.8
0.8
0.8
0.8
0.8
0.8
0.8
0.8
0.8
0.8
0.8
0.8
0.8
0.8
0.8
0.8
0.8
0.8
0.8
0.8
0.8
0.8
0.8
0.8
0.8
0.8
0.8
0.8
0.8
0.8
0.8
0.8
0.8
0.8
0.8
0.8
0.8
0.8
0.8
0.8
0.8
0.8
0.8
0.8
0.8
0.8
0.8
0.8
0.8
0.8
0.8
0.8
0.8
0.8
0.8
0.8
0.8
0.8
0.8
0.274711
0.296504
0.321844
0.347454
0.371784
0.39429
0.414911
0.433789
0.451064
0.466871
0.481353
0.494663
0.506991
0.518507
0.5293
0.53949
0.549188
0.558497
0.567514
0.576335
0.585066
0.593841
0.602884
0.612664
0.623721
0.636818
0.653366
0.675752
0.706947
0.745733
0.778611
0.79426
0.798806
0.799793
0.79997
0.799996
0.8
0.8
0.8
0.8
0.296499
0.315508
0.33774
0.360585
0.382712
0.40355
0.422954
0.440938
0.457546
0.472853
0.486962
0.499999
0.512149
0.523534
0.53424
0.544381
0.554059
0.563375
0.572423
0.581297
0.590107
0.599005
0.608274
0.618454
0.630072
0.644028
0.661921
0.686283
0.719424
0.757107
0.784614
0.796072
0.799195
0.79986
0.79998
0.799998
0.8
0.8
0.8
0.8
0.32185
0.337735
0.356646
0.376514
0.396198
0.415147
0.433133
0.450044
0.465837
0.480527
0.494168
0.506868
0.518786
0.529981
0.540542
0.550572
0.560169
0.569426
0.578435
0.587293
0.596123
0.605128
0.614731
0.625405
0.637747
0.652836
0.672486
0.699218
0.733878
0.768532
0.789746
0.797491
0.79949
0.799911
0.799987
0.799998
0.8
0.8
0.8
0.8
0.347452
0.360583
0.376515
0.393652
0.411049
0.42819
0.444765
0.460582
0.475537
0.489591
0.502755
0.515135
0.526798
0.537782
0.548175
0.558069
0.567556
0.576725
0.585672
0.594509
0.603411
0.612721
0.622867
0.63428
0.64773
0.66451
0.686597
0.715986
0.750584
0.779344
0.793815
0.798525
0.7997
0.799947
0.799992
0.799999
0.8
0.8
0.8
0.8
0.371783
0.382713
0.3962
0.41105
0.426496
0.442035
0.457324
0.472138
0.486333
0.49982
0.512603
0.524726
0.53616
0.546959
0.557201
0.566971
0.576362
0.58547
0.594413
0.603368
0.612665
0.622657
0.6337
0.646407
0.661766
0.681262
0.706648
0.737884
0.768504
0.788421
0.79671
0.799213
0.799836
0.799971
0.799996
0.799999
0.8
0.8
0.8
0.8
0.39429
0.403551
0.415148
0.428191
0.442035
0.45622
0.47042
0.484402
0.497997
0.511103
0.523695
0.535657
0.546961
0.557654
0.567814
0.577534
0.586925
0.596128
0.605356
0.614962
0.625205
0.636446
0.649256
0.66449
0.68332
0.706964
0.735232
0.763621
0.784344
0.794696
0.798484
0.799622
0.799918
0.799985
0.799998
0.8
0.8
0.8
0.8
0.8
0.414911
0.422955
0.433134
0.444765
0.457324
0.47042
0.483765
0.497147
0.510411
0.523475
0.536124
0.548145
0.559502
0.570252
0.580504
0.5904
0.600138
0.610036
0.620361
0.631396
0.64358
0.657548
0.674145
0.694297
0.718391
0.744782
0.768783
0.785517
0.794333
0.798043
0.799392
0.799834
0.799961
0.799992
0.799999
0.8
0.8
0.8
0.8
0.8
0.433789
0.440939
0.450044
0.460582
0.472138
0.484402
0.497147
0.510229
0.523599
0.537069
0.550282
0.562793
0.574576
0.585781
0.596645
0.607513
0.618677
0.630427
0.643205
0.657617
0.674433
0.694411
0.717672
0.742529
0.765109
0.781669
0.791458
0.796327
0.798494
0.799406
0.799782
0.799933
0.799983
0.799996
0.799999
0.8
0.8
0.8
0.8
0.8
0.451064
0.457546
0.465837
0.475537
0.486333
0.497997
0.510411
0.523599
0.537573
0.552311
0.567456
0.581473
0.59469
0.607644
0.620787
0.634493
0.649288
0.665878
0.685034
0.707158
0.731356
0.754754
0.77368
0.786309
0.793435
0.796993
0.798642
0.799377
0.799703
0.799853
0.799929
0.799974
0.799993
0.799998
0.8
0.8
0.8
0.8
0.8
0.8
0.46687
0.472854
0.480527
0.489591
0.49982
0.511103
0.523475
0.537069
0.552311
0.570411
0.593868
0.612732
0.631004
0.649845
0.670056
0.692187
0.716049
0.740037
0.761286
0.777391
0.787914
0.793985
0.797157
0.798699
0.799413
0.799734
0.799876
0.799937
0.799964
0.799975
0.799979
0.79999
0.799997
0.799999
0.8
0.8
0.8
0.8
0.8
0.8
0.481353
0.486962
0.494168
0.502755
0.512603
0.523695
0.536124
0.550282
0.567456
0.593868
0.787731
0.79264
0.79344
0.794695
0.79605
0.797296
0.798306
0.799028
0.799483
0.799742
0.799877
0.799944
0.799975
0.799989
0.799995
0.799998
0.799999
0.799999
0.8
0.8
0.799992
0.799997
0.799999
0.8
0.8
0.8
0.8
0.8
0.8
0.8
0.494663
0.499999
0.506868
0.515135
0.524726
0.535657
0.548145
0.562793
0.581473
0.612733
0.79264
0.799815
0.799913
0.799932
0.799953
0.79997
0.799983
0.799991
0.799995
0.799998
0.799999
0.8
0.8
0.8
0.8
0.8
0.8
0.8
0.8
0.8
0.799997
0.799999
0.8
0.8
0.8
0.8
0.8
0.8
0.8
0.8
0.506991
0.512149
0.518786
0.526798
0.53616
0.546961
0.559502
0.574576
0.59469
0.631004
0.79344
0.799913
0.799998
0.799999
0.8
0.8
0.8
0.8
0.8
0.8
0.8
0.8
0.8
0.8
0.8
0.8
0.8
0.8
0.8
0.8
0.799999
0.8
0.8
0.8
0.8
0.8
0.8
0.8
0.8
0.8
0.518507
0.523534
0.529981
0.537782
0.546959
0.557654
0.570252
0.585781
0.607644
0.649845
0.794695
0.799932
0.799999
0.8
0.8
0.8
0.8
0.8
0.8
0.8
0.8
0.8
0.8
0.8
0.8
0.8
0.8
0.8
0.8
0.8
0.8
0.8
0.8
0.8
0.8
0.8
0.8
0.8
0.8
0.8
0.5293
0.53424
0.540542
0.548175
0.557201
0.567814
0.580504
0.596645
0.620787
0.670056
0.79605
0.799953
0.8
0.8
0.8
0.8
0.8
0.8
0.8
0.8
0.8
0.8
0.8
0.8
0.8
0.8
0.8
0.8
0.8
0.8
0.8
0.8
0.8
0.8
0.8
0.8
0.8
0.8
0.8
0.8
0.53949
0.544381
0.550572
0.558069
0.566971
0.577534
0.5904
0.607513
0.634492
0.692187
0.797296
0.79997
0.8
0.8
0.8
0.8
0.8
0.8
0.8
0.8
0.8
0.8
0.8
0.8
0.8
0.8
0.8
0.8
0.8
0.8
0.8
0.8
0.8
0.8
0.8
0.8
0.8
0.8
0.8
0.8
0.549188
0.554059
0.560169
0.567556
0.576362
0.586925
0.600138
0.618677
0.649288
0.716049
0.798306
0.799983
0.8
0.8
0.8
0.8
0.8
0.8
0.8
0.8
0.8
0.8
0.8
0.8
0.8
0.8
0.8
0.8
0.8
0.8
0.8
0.8
0.8
0.8
0.8
0.8
0.8
0.8
0.8
0.8
0.558497
0.563375
0.569426
0.576725
0.58547
0.596128
0.610036
0.630427
0.665877
0.740037
0.799028
0.799991
0.8
0.8
0.8
0.8
0.8
0.8
0.8
0.8
0.8
0.8
0.8
0.8
0.8
0.8
0.8
0.8
0.8
0.8
0.8
0.8
0.8
0.8
0.8
0.8
0.8
0.8
0.8
0.8
0.567514
0.572423
0.578435
0.585672
0.594413
0.605356
0.620361
0.643205
0.685034
0.761286
0.799483
0.799995
0.8
0.8
0.8
0.8
0.8
0.8
0.8
0.8
0.8
0.8
0.8
0.8
0.8
0.8
0.8
0.8
0.8
0.8
0.8
0.8
0.8
0.8
0.8
0.8
0.8
0.8
0.8
0.8
0.576335
0.581297
0.587293
0.594509
0.603368
0.614962
0.631396
0.657617
0.707158
0.777391
0.799742
0.799998
0.8
0.8
0.8
0.8
0.8
0.8
0.8
0.8
0.8
0.8
0.8
0.8
0.8
0.8
0.8
0.8
0.8
0.8
0.8
0.8
0.8
0.8
0.8
0.8
0.8
0.8
0.8
0.8
0.585066
0.590107
0.596123
0.603411
0.612665
0.625205
0.64358
0.674432
0.731356
0.787914
0.799877
0.799999
0.8
0.8
0.8
0.8
0.8
0.8
0.8
0.8
0.8
0.8
0.8
0.8
0.8
0.8
0.8
0.8
0.8
0.8
0.8
0.8
0.8
0.8
0.8
0.8
0.8
0.8
0.8
0.8
0.593841
0.599005
0.605128
0.612721
0.622657
0.636446
0.657548
0.694411
0.754754
0.793985
0.799944
0.8
0.8
0.8
0.8
0.8
0.8
0.8
0.8
0.8
0.8
0.8
0.8
0.8
0.8
0.8
0.8
0.8
0.8
0.8
0.8
0.8
0.8
0.8
0.8
0.8
0.8
0.8
0.8
0.8
0.602884
0.608274
0.614731
0.622867
0.6337
0.649256
0.674144
0.717672
0.77368
0.797157
0.799975
0.8
0.8
0.8
0.8
0.8
0.8
0.8
0.8
0.8
0.8
0.8
0.8
0.8
0.8
0.8
0.8
0.8
0.8
0.8
0.8
0.8
0.8
0.8
0.8
0.8
0.8
0.8
0.8
0.8
0.612664
0.618454
0.625405
0.63428
0.646407
0.66449
0.694297
0.742529
0.786309
0.798699
0.799989
0.8
0.8
0.8
0.8
0.8
0.8
0.8
0.8
0.8
0.8
0.8
0.8
0.8
0.8
0.8
0.8
0.8
0.8
0.8
0.8
0.8
0.8
0.8
0.8
0.8
0.8
0.8
0.8
0.8
0.623721
0.630072
0.637747
0.64773
0.661766
0.68332
0.718391
0.765109
0.793435
0.799413
0.799995
0.8
0.8
0.8
0.8
0.8
0.8
0.8
0.8
0.8
0.8
0.8
0.8
0.8
0.8
0.8
0.8
0.8
0.8
0.8
0.8
0.8
0.8
0.8
0.8
0.8
0.8
0.8
0.8
0.8
0.636818
0.644028
0.652836
0.66451
0.681262
0.706964
0.744782
0.781669
0.796993
0.799734
0.799998
0.8
0.8
0.8
0.8
0.8
0.8
0.8
0.8
0.8
0.8
0.8
0.8
0.8
0.8
0.8
0.8
0.8
0.8
0.8
0.8
0.8
0.8
0.8
0.8
0.8
0.8
0.8
0.8
0.8
0.653366
0.661921
0.672485
0.686597
0.706648
0.735232
0.768783
0.791458
0.798642
0.799876
0.799999
0.8
0.8
0.8
0.8
0.8
0.8
0.8
0.8
0.8
0.8
0.8
0.8
0.8
0.8
0.8
0.8
0.8
0.8
0.8
0.8
0.8
0.8
0.8
0.8
0.8
0.8
0.8
0.8
0.8
0.675752
0.686283
0.699218
0.715986
0.737884
0.763621
0.785517
0.796327
0.799377
0.799937
0.799999
0.8
0.8
0.8
0.8
0.8
0.8
0.8
0.8
0.8
0.8
0.8
0.8
0.8
0.8
0.8
0.8
0.8
0.8
0.8
0.8
0.8
0.8
0.8
0.8
0.8
0.8
0.8
0.8
0.8
0.706947
0.719423
0.733878
0.750584
0.768504
0.784344
0.794333
0.798494
0.799703
0.799964
0.8
0.8
0.8
0.8
0.8
0.8
0.8
0.8
0.8
0.8
0.8
0.8
0.8
0.8
0.8
0.8
0.8
0.8
0.8
0.8
0.8
0.8
0.8
0.8
0.8
0.8
0.8
0.8
0.8
0.8
0.745733
0.757107
0.768532
0.779344
0.788421
0.794696
0.798043
0.799406
0.799853
0.799975
0.8
0.8
0.8
0.8
0.8
0.8
0.8
0.8
0.8
0.8
0.8
0.8
0.8
0.8
0.8
0.8
0.8
0.8
0.8
0.8
0.8
0.8
0.8
0.8
0.8
0.8
0.8
0.8
0.8
0.8
0.778611
0.784614
0.789746
0.793815
0.79671
0.798484
0.799392
0.799782
0.799929
0.799979
0.799992
0.799997
0.799999
0.8
0.8
0.8
0.8
0.8
0.8
0.8
0.8
0.8
0.8
0.8
0.8
0.8
0.8
0.8
0.8
0.8
0.8
0.8
0.8
0.8
0.8
0.8
0.8
0.8
0.8
0.8
0.79426
0.796072
0.797491
0.798525
0.799213
0.799622
0.799834
0.799933
0.799974
0.79999
0.799997
0.799999
0.8
0.8
0.8
0.8
0.8
0.8
0.8
0.8
0.8
0.8
0.8
0.8
0.8
0.8
0.8
0.8
0.8
0.8
0.8
0.8
0.8
0.8
0.8
0.8
0.8
0.8
0.8
0.8
0.798806
0.799195
0.79949
0.7997
0.799836
0.799918
0.799961
0.799983
0.799993
0.799997
0.799999
0.8
0.8
0.8
0.8
0.8
0.8
0.8
0.8
0.8
0.8
0.8
0.8
0.8
0.8
0.8
0.8
0.8
0.8
0.8
0.8
0.8
0.8
0.8
0.8
0.8
0.8
0.8
0.8
0.8
0.799793
0.79986
0.799911
0.799947
0.799971
0.799985
0.799992
0.799996
0.799998
0.799999
0.8
0.8
0.8
0.8
0.8
0.8
0.8
0.8
0.8
0.8
0.8
0.8
0.8
0.8
0.8
0.8
0.8
0.8
0.8
0.8
0.8
0.8
0.8
0.8
0.8
0.8
0.8
0.8
0.8
0.8
0.79997
0.79998
0.799987
0.799992
0.799996
0.799998
0.799999
0.799999
0.8
0.8
0.8
0.8
0.8
0.8
0.8
0.8
0.8
0.8
0.8
0.8
0.8
0.8
0.8
0.8
0.8
0.8
0.8
0.8
0.8
0.8
0.8
0.8
0.8
0.8
0.8
0.8
0.8
0.8
0.8
0.8
0.799996
0.799998
0.799998
0.799999
0.799999
0.8
0.8
0.8
0.8
0.8
0.8
0.8
0.8
0.8
0.8
0.8
0.8
0.8
0.8
0.8
0.8
0.8
0.8
0.8
0.8
0.8
0.8
0.8
0.8
0.8
0.8
0.8
0.8
0.8
0.8
0.8
0.8
0.8
0.8
0.8
0.8
0.8
0.8
0.8
0.8
0.8
0.8
0.8
0.8
0.8
0.8
0.8
0.8
0.8
0.8
0.8
0.8
0.8
0.8
0.8
0.8
0.8
0.8
0.8
0.8
0.8
0.8
0.8
0.8
0.8
0.8
0.8
0.8
0.8
0.8
0.8
0.8
0.8
0.8
0.8
0.8
0.8
0.8
0.8
0.8
0.8
0.8
0.8
0.8
0.8
0.8
0.8
0.8
0.8
0.8
0.8
0.8
0.8
0.8
0.8
0.8
0.8
0.8
0.8
0.8
0.8
0.8
0.8
0.8
0.8
0.8
0.8
0.8
0.8
0.8
0.8
0.8
0.8
0.8
0.8
0.8
0.8
0.8
0.8
0.8
0.8
0.8
0.8
0.8
0.8
0.8
0.8
0.8
0.8
0.8
0.8
0.8
0.8
0.8
0.8
0.8
0.8
0.8
0.8
0.8
0.8
0.8
0.8
0.8
0.8
0.8
0.8
0.8
0.8
0.8
0.8
0.8
0.8
0.8
0.8
0.8
0.8
0.8
0.8
0.8
0.8
0.8
0.8
0.8
0.8
0.8
0.8
0.8
0.8
0.8
0.8
0.8
0.8
0.8
0.8
0.8
0.8
0.8
0.8
0.8
0.8
0.8
0.8
0.8
0.8
0.8
0.8
0.8
0.8
0.8
0.8
0.8
0.8
0.8
0.8
0.225454
0.248671
0.278564
0.309413
0.338422
0.364711
0.388219
0.409215
0.428069
0.445082
0.460494
0.474514
0.487335
0.499139
0.510106
0.520362
0.530032
0.539235
0.548083
0.55669
0.565179
0.573692
0.582422
0.591601
0.601546
0.612753
0.626054
0.642936
0.666063
0.699314
0.742417
0.778865
0.794929
0.799076
0.799862
0.799983
0.799998
0.8
0.8
0.8
0.248654
0.271109
0.297832
0.325183
0.351267
0.375324
0.397194
0.417023
0.43504
0.451436
0.466382
0.480047
0.492595
0.504193
0.514999
0.525128
0.534703
0.543837
0.552643
0.561233
0.569734
0.578298
0.587128
0.596463
0.606643
0.618211
0.632093
0.649952
0.674703
0.709984
0.75263
0.784105
0.796362
0.799347
0.799903
0.799988
0.799999
0.8
0.8
0.8
0.278581
0.297828
0.320526
0.34403
0.366897
0.388439
0.40843
0.426893
0.443901
0.459537
0.473902
0.487115
0.499304
0.510625
0.5212
0.531139
0.540558
0.549568
0.558279
0.566809
0.575288
0.583887
0.592808
0.602299
0.612733
0.624718
0.639304
0.658377
0.685117
0.722428
0.76318
0.788757
0.797535
0.799563
0.799935
0.799992
0.799999
0.8
0.8
0.8
0.309413
0.325175
0.344027
0.363965
0.383812
0.402951
0.421121
0.438221
0.454196
0.469043
0.4828
0.495533
0.507348
0.518365
0.528678
0.538399
0.547638
0.556505
0.565114
0.573588
0.582075
0.590754
0.599819
0.609547
0.620358
0.632951
0.648546
0.669313
0.69857
0.737332
0.773736
0.792668
0.798442
0.799725
0.799959
0.799995
0.8
0.8
0.8
0.8
0.338419
0.351261
0.366895
0.383811
0.401066
0.418124
0.434682
0.450538
0.465565
0.479694
0.492899
0.505198
0.516677
0.527406
0.537476
0.546998
0.556082
0.564844
0.573408
0.581915
0.590524
0.599401
0.608771
0.618953
0.630451
0.6441
0.66136
0.684691
0.716884
0.75484
0.783495
0.795697
0.799096
0.799839
0.799976
0.799997
0.8
0.8
0.8
0.8
0.364709
0.37532
0.388437
0.40295
0.418124
0.433479
0.448682
0.463495
0.477751
0.491324
0.504127
0.516134
0.527367
0.537886
0.54779
0.557197
0.566229
0.575016
0.583707
0.592443
0.601388
0.610746
0.620795
0.63195
0.644861
0.660592
0.680878
0.707968
0.74176
0.773271
0.791279
0.797775
0.799523
0.799913
0.799987
0.799998
0.8
0.8
0.8
0.8
0.388218
0.397193
0.408429
0.421121
0.434682
0.448682
0.462811
0.476839
0.490586
0.503885
0.516575
0.528518
0.539691
0.550177
0.5601
0.569599
0.57883
0.587939
0.597079
0.606429
0.616206
0.626706
0.63835
0.651758
0.667857
0.687927
0.713168
0.742652
0.770239
0.788184
0.796224
0.798988
0.79977
0.799956
0.799993
0.799999
0.8
0.8
0.8
0.8
0.409215
0.417022
0.426892
0.43822
0.450538
0.463495
0.476839
0.490389
0.503998
0.517502
0.530617
0.542917
0.554403
0.565228
0.575581
0.585648
0.595598
0.605623
0.615944
0.62685
0.638735
0.652146
0.667833
0.686697
0.709359
0.734928
0.759743
0.778939
0.790511
0.796181
0.798622
0.799584
0.799897
0.799979
0.799997
0.8
0.8
0.8
0.8
0.8
0.428068
0.43504
0.443901
0.454195
0.465565
0.47775
0.490586
0.503998
0.517998
0.532606
0.547442
0.561021
0.573643
0.585691
0.597462
0.60921
0.621197
0.633767
0.647393
0.662713
0.680489
0.701312
0.724806
0.748629
0.768979
0.783263
0.791668
0.796003
0.798077
0.799058
0.799554
0.79984
0.799957
0.799991
0.799999
0.8
0.8
0.8
0.8
0.8
0.445082
0.451436
0.459537
0.469043
0.479694
0.491324
0.503885
0.517502
0.532606
0.550278
0.572529
0.589921
0.606149
0.622235
0.638778
0.656307
0.675308
0.69608
0.718316
0.740573
0.76045
0.775951
0.786581
0.793065
0.796612
0.798387
0.799223
0.799603
0.79977
0.799841
0.799871
0.799942
0.799983
0.799996
0.799999
0.8
0.8
0.8
0.8
0.8
0.460493
0.466382
0.473902
0.482799
0.492899
0.504127
0.516575
0.530617
0.547442
0.572529
0.784314
0.789853
0.790328
0.791505
0.792983
0.794532
0.796001
0.797277
0.798285
0.799001
0.799457
0.799723
0.799865
0.799937
0.799971
0.799987
0.799994
0.799997
0.799998
0.799998
0.79995
0.79998
0.799994
0.799999
0.8
0.8
0.8
0.8
0.8
0.8
0.474514
0.480047
0.487114
0.495533
0.505198
0.516134
0.528518
0.542917
0.561021
0.589921
0.789853
0.79969
0.79984
0.799862
0.799893
0.799923
0.799949
0.799968
0.799982
0.79999
0.799995
0.799998
0.799999
0.8
0.8
0.8
0.8
0.8
0.8
0.8
0.799983
0.799993
0.799998
0.8
0.8
0.8
0.8
0.8
0.8
0.8
0.487335
0.492594
0.499303
0.507347
0.516677
0.527367
0.539691
0.554403
0.573643
0.606149
0.790328
0.79984
0.799996
0.799998
0.799999
0.799999
0.799999
0.8
0.8
0.8
0.8
0.8
0.8
0.8
0.8
0.8
0.8
0.8
0.8
0.8
0.799995
0.799998
0.799999
0.8
0.8
0.8
0.8
0.8
0.8
0.8
0.499139
0.504193
0.510625
0.518365
0.527405
0.537886
0.550177
0.565228
0.585691
0.622235
0.791505
0.799862
0.799998
0.8
0.8
0.8
0.8
0.8
0.8
0.8
0.8
0.8
0.8
0.8
0.8
0.8
0.8
0.8
0.8
0.8
0.799999
0.799999
0.8
0.8
0.8
0.8
0.8
0.8
0.8
0.8
0.510106
0.514999
0.5212
0.528678
0.537476
0.54779
0.560099
0.575581
0.597462
0.638778
0.792983
0.799893
0.799999
0.8
0.8
0.8
0.8
0.8
0.8
0.8
0.8
0.8
0.8
0.8
0.8
0.8
0.8
0.8
0.8
0.8
0.8
0.8
0.8
0.8
0.8
0.8
0.8
0.8
0.8
0.8
0.520362
0.525128
0.531139
0.538399
0.546998
0.557197
0.569599
0.585648
0.60921
0.656307
0.794532
0.799923
0.799999
0.8
0.8
0.8
0.8
0.8
0.8
0.8
0.8
0.8
0.8
0.8
0.8
0.8
0.8
0.8
0.8
0.8
0.8
0.8
0.8
0.8
0.8
0.8
0.8
0.8
0.8
0.8
0.530032
0.534703
0.540558
0.547638
0.556082
0.566229
0.57883
0.595598
0.621197
0.675308
0.796001
0.799949
0.799999
0.8
0.8
0.8
0.8
0.8
0.8
0.8
0.8
0.8
0.8
0.8
0.8
0.8
0.8
0.8
0.8
0.8
0.8
0.8
0.8
0.8
0.8
0.8
0.8
0.8
0.8
0.8
0.539234
0.543837
0.549568
0.556505
0.564844
0.575015
0.587939
0.605623
0.633767
0.69608
0.797277
0.799968
0.8
0.8
0.8
0.8
0.8
0.8
0.8
0.8
0.8
0.8
0.8
0.8
0.8
0.8
0.8
0.8
0.8
0.8
0.8
0.8
0.8
0.8
0.8
0.8
0.8
0.8
0.8
0.8
0.548083
0.552643
0.558279
0.565114
0.573408
0.583707
0.597079
0.615944
0.647393
0.718316
0.798285
0.799982
0.8
0.8
0.8
0.8
0.8
0.8
0.8
0.8
0.8
0.8
0.8
0.8
0.8
0.8
0.8
0.8
0.8
0.8
0.8
0.8
0.8
0.8
0.8
0.8
0.8
0.8
0.8
0.8
0.55669
0.561233
0.566809
0.573588
0.581915
0.592443
0.606429
0.62685
0.662713
0.740573
0.799001
0.79999
0.8
0.8
0.8
0.8
0.8
0.8
0.8
0.8
0.8
0.8
0.8
0.8
0.8
0.8
0.8
0.8
0.8
0.8
0.8
0.8
0.8
0.8
0.8
0.8
0.8
0.8
0.8
0.8
0.565179
0.569734
0.575288
0.582075
0.590524
0.601388
0.616206
0.638735
0.680489
0.76045
0.799457
0.799995
0.8
0.8
0.8
0.8
0.8
0.8
0.8
0.8
0.8
0.8
0.8
0.8
0.8
0.8
0.8
0.8
0.8
0.8
0.8
0.8
0.8
0.8
0.8
0.8
0.8
0.8
0.8
0.8
0.573692
0.578298
0.583887
0.590754
0.599401
0.610746
0.626706
0.652146
0.701312
0.775951
0.799723
0.799998
0.8
0.8
0.8
0.8
0.8
0.8
0.8
0.8
0.8
0.8
0.8
0.8
0.8
0.8
0.8
0.8
0.8
0.8
0.8
0.8
0.8
0.8
0.8
0.8
0.8
0.8
0.8
0.8
0.582422
0.587128
0.592808
0.599819
0.608771
0.620795
0.63835
0.667832
0.724806
0.786581
0.799865
0.799999
0.8
0.8
0.8
0.8
0.8
0.8
0.8
0.8
0.8
0.8
0.8
0.8
0.8
0.8
0.8
0.8
0.8
0.8
0.8
0.8
0.8
0.8
0.8
0.8
0.8
0.8
0.8
0.8
0.591601
0.596463
0.602298
0.609546
0.618953
0.63195
0.651758
0.686697
0.748629
0.793065
0.799937
0.8
0.8
0.8
0.8
0.8
0.8
0.8
0.8
0.8
0.8
0.8
0.8
0.8
0.8
0.8
0.8
0.8
0.8
0.8
0.8
0.8
0.8
0.8
0.8
0.8
0.8
0.8
0.8
0.8
0.601546
0.606643
0.612733
0.620358
0.630451
0.644861
0.667857
0.709359
0.768979
0.796612
0.799971
0.8
0.8
0.8
0.8
0.8
0.8
0.8
0.8
0.8
0.8
0.8
0.8
0.8
0.8
0.8
0.8
0.8
0.8
0.8
0.8
0.8
0.8
0.8
0.8
0.8
0.8
0.8
0.8
0.8
0.612753
0.618211
0.624718
0.632951
0.6441
0.660592
0.687927
0.734928
0.783263
0.798387
0.799987
0.8
0.8
0.8
0.8
0.8
0.8
0.8
0.8
0.8
0.8
0.8
0.8
0.8
0.8
0.8
0.8
0.8
0.8
0.8
0.8
0.8
0.8
0.8
0.8
0.8
0.8
0.8
0.8
0.8
0.626054
0.632093
0.639304
0.648546
0.66136
0.680878
0.713168
0.759743
0.791668
0.799223
0.799994
0.8
0.8
0.8
0.8
0.8
0.8
0.8
0.8
0.8
0.8
0.8
0.8
0.8
0.8
0.8
0.8
0.8
0.8
0.8
0.8
0.8
0.8
0.8
0.8
0.8
0.8
0.8
0.8
0.8
0.642936
0.649952
0.658377
0.669313
0.684691
0.707968
0.742652
0.778939
0.796003
0.799603
0.799997
0.8
0.8
0.8
0.8
0.8
0.8
0.8
0.8
0.8
0.8
0.8
0.8
0.8
0.8
0.8
0.8
0.8
0.8
0.8
0.8
0.8
0.8
0.8
0.8
0.8
0.8
0.8
0.8
0.8
0.666063
0.674703
0.685117
0.69857
0.716884
0.741759
0.770239
0.790511
0.798077
0.79977
0.799998
0.8
0.8
0.8
0.8
0.8
0.8
0.8
0.8
0.8
0.8
0.8
0.8
0.8
0.8
0.8
0.8
0.8
0.8
0.8
0.8
0.8
0.8
0.8
0.8
0.8
0.8
0.8
0.8
0.8
0.699314
0.709984
0.722428
0.737332
0.75484
0.773271
0.788184
0.796181
0.799058
0.799841
0.799998
0.8
0.8
0.8
0.8
0.8
0.8
0.8
0.8
0.8
0.8
0.8
0.8
0.8
0.8
0.8
0.8
0.8
0.8
0.8
0.8
0.8
0.8
0.8
0.8
0.8
0.8
0.8
0.8
0.8
0.742417
0.75263
0.76318
0.773736
0.783495
0.791279
0.796224
0.798622
0.799554
0.799871
0.79995
0.799983
0.799995
0.799999
0.8
0.8
0.8
0.8
0.8
0.8
0.8
0.8
0.8
0.8
0.8
0.8
0.8
0.8
0.8
0.8
0.8
0.8
0.8
0.8
0.8
0.8
0.8
0.8
0.8
0.8
0.778865
0.784104
0.788757
0.792668
0.795697
0.797775
0.798988
0.799584
0.79984
0.799942
0.79998
0.799993
0.799998
0.799999
0.8
0.8
0.8
0.8
0.8
0.8
0.8
0.8
0.8
0.8
0.8
0.8
0.8
0.8
0.8
0.8
0.8
0.8
0.8
0.8
0.8
0.8
0.8
0.8
0.8
0.8
0.794929
0.796362
0.797535
0.798442
0.799096
0.799523
0.79977
0.799897
0.799957
0.799983
0.799994
0.799998
0.799999
0.8
0.8
0.8
0.8
0.8
0.8
0.8
0.8
0.8
0.8
0.8
0.8
0.8
0.8
0.8
0.8
0.8
0.8
0.8
0.8
0.8
0.8
0.8
0.8
0.8
0.8
0.8
0.799076
0.799347
0.799563
0.799725
0.799839
0.799913
0.799956
0.799979
0.799991
0.799996
0.799999
0.8
0.8
0.8
0.8
0.8
0.8
0.8
0.8
0.8
0.8
0.8
0.8
0.8
0.8
0.8
0.8
0.8
0.8
0.8
0.8
0.8
0.8
0.8
0.8
0.8
0.8
0.8
0.8
0.8
0.799862
0.799903
0.799935
0.799959
0.799976
0.799987
0.799993
0.799997
0.799999
0.799999
0.8
0.8
0.8
0.8
0.8
0.8
0.8
0.8
0.8
0.8
0.8
0.8
0.8
0.8
0.8
0.8
0.8
0.8
0.8
0.8
0.8
0.8
0.8
0.8
0.8
0.8
0.8
0.8
0.8
0.8
0.799983
0.799988
0.799992
0.799995
0.799997
0.799998
0.799999
0.8
0.8
0.8
0.8
0.8
0.8
0.8
0.8
0.8
0.8
0.8
0.8
0.8
0.8
0.8
0.8
0.8
0.8
0.8
0.8
0.8
0.8
0.8
0.8
0.8
0.8
0.8
0.8
0.8
0.8
0.8
0.8
0.8
0.799998
0.799999
0.799999
0.8
0.8
0.8
0.8
0.8
0.8
0.8
0.8
0.8
0.8
0.8
0.8
0.8
0.8
0.8
0.8
0.8
0.8
0.8
0.8
0.8
0.8
0.8
0.8
0.8
0.8
0.8
0.8
0.8
0.8
0.8
0.8
0.8
0.8
0.8
0.8
0.8
0.8
0.8
0.8
0.8
0.8
0.8
0.8
0.8
0.8
0.8
0.8
0.8
0.8
0.8
0.8
0.8
0.8
0.8
0.8
0.8
0.8
0.8
0.8
0.8
0.8
0.8
0.8
0.8
0.8
0.8
0.8
0.8
0.8
0.8
0.8
0.8
0.8
0.8
0.8
0.8
0.8
0.8
0.8
0.8
0.8
0.8
0.8
0.8
0.8
0.8
0.8
0.8
0.8
0.8
0.8
0.8
0.8
0.8
0.8
0.8
0.8
0.8
0.8
0.8
0.8
0.8
0.8
0.8
0.8
0.8
0.8
0.8
0.8
0.8
0.8
0.8
0.8
0.8
0.8
0.8
0.8
0.8
0.8
0.8
0.8
0.8
0.8
0.8
0.8
0.8
0.8
0.8
0.8
0.8
0.8
0.8
0.8
0.8
0.8
0.8
0.8
0.8
0.8
0.8
0.8
0.8
0.8
0.8
0.8
0.8
0.8
0.8
0.8
0.8
0.8
0.8
0.8
0.8
0.8
0.8
0.202202
0.215175
0.244089
0.278751
0.31205
0.341919
0.368184
0.39123
0.411573
0.429705