/*--------------------------------*- C++ -*----------------------------------*\
| =========                 |                                                 |
| \\      /  F ield         | OpenFOAM: The Open Source CFD Toolbox           |
|  \\    /   O peration     | Version:  2.1.0                                 |
|   \\  /    A nd           | Web:      www.OpenFOAM.org                      |
|    \\/     M anipulation  |                                                 |
\*---------------------------------------------------------------------------*/
FoamFile
{
    version     2.0;
    format      ascii;
    class       volScalarField;
    location    "12045";
    object      sw;
}
// * * * * * * * * * * * * * * * * * * * * * * * * * * * * * * * * * * * * * //

dimensions      [0 0 0 0 0 0 0];

internalField   nonuniform List<scalar> 
8000
(
0.654502
0.638262
0.61928
0.599631
0.580283
0.561647
0.543923
0.52719
0.511453
0.496671
0.482765
0.469637
0.457211
0.445393
0.434025
0.422945
0.411985
0.40097
0.389716
0.378027
0.365662
0.35234
0.33777
0.321745
0.303844
0.283637
0.261367
0.238801
0.219612
0.207429
0.202138
0.200503
0.200101
0.200018
0.200003
0.2
0.2
0.2
0.2
0.2
0.638263
0.624036
0.607112
0.589221
0.571261
0.553708
0.536814
0.520708
0.505432
0.490974
0.477277
0.464265
0.451891
0.440045
0.428569
0.417297
0.406055
0.394663
0.382931
0.37064
0.357531
0.343321
0.327779
0.310788
0.292002
0.271416
0.249918
0.229724
0.214045
0.205021
0.201404
0.200328
0.200066
0.200011
0.200002
0.2
0.2
0.2
0.2
0.2
0.619279
0.607114
0.592329
0.57633
0.559935
0.543635
0.527722
0.512363
0.497635
0.483556
0.4701
0.457231
0.444925
0.433047
0.421442
0.409945
0.398376
0.386555
0.37428
0.361314
0.347394
0.332287
0.315918
0.298113
0.278776
0.258435
0.238521
0.221339
0.209312
0.203131
0.200853
0.200199
0.20004
0.200007
0.200001
0.2
0.2
0.2
0.2
0.2
0.599632
0.58922
0.57633
0.562074
0.547178
0.532113
0.517179
0.502559
0.488361
0.47463
0.461376
0.448629
0.43633
0.424344
0.412517
0.40068
0.388654
0.376254
0.363259
0.349427
0.334539
0.318524
0.301306
0.282798
0.263425
0.244294
0.227099
0.213742
0.205502
0.201758
0.200473
0.200111
0.200023
0.200004
0.200001
0.2
0.2
0.2
0.2
0.2
0.580283
0.571261
0.559935
0.547178
0.533609
0.51965
0.505585
0.491603
0.477823
0.464318
0.451165
0.438412
0.425967
0.4137
0.401453
0.389057
0.376332
0.363069
0.349041
0.334054
0.318063
0.300992
0.282836
0.264087
0.245814
0.229435
0.216324
0.20746
0.202767
0.200863
0.200236
0.200057
0.200012
0.200002
0.2
0.2
0.2
0.2
0.2
0.2
0.561648
0.553708
0.543635
0.532114
0.51965
0.506606
0.493233
0.479702
0.466136
0.452647
0.439387
0.426355
0.413471
0.400604
0.387595
0.374268
0.360416
0.345824
0.330337
0.313926
0.296471
0.278148
0.259687
0.242307
0.227299
0.215603
0.207649
0.203171
0.201137
0.200364
0.200105
0.200027
0.200006
0.200001
0.2
0.2
0.2
0.2
0.2
0.2
0.543923
0.536814
0.527723
0.517179
0.505585
0.493233
0.48032
0.46698
0.453322
0.439527
0.42569
0.411879
0.398039
0.384032
0.369683
0.354779
0.339124
0.322625
0.305131
0.286662
0.267778
0.249641
0.233655
0.220849
0.211607
0.20573
0.202519
0.201009
0.200376
0.200131
0.200042
0.200012
0.200003
0.200001
0.2
0.2
0.2
0.2
0.2
0.2
0.52719
0.520708
0.512363
0.50256
0.491603
0.479702
0.46698
0.453497
0.439342
0.42453
0.409183
0.393663
0.377949
0.361854
0.345155
0.327703
0.309283
0.289849
0.269961
0.250911
0.234306
0.22127
0.212055
0.206231
0.202968
0.201331
0.200574
0.200241
0.2001
0.20004
0.200015
0.200005
0.200001
0.2
0.2
0.2
0.2
0.2
0.2
0.2
0.511453
0.505432
0.497635
0.488361
0.477823
0.466136
0.453322
0.439342
0.423925
0.406653
0.38751
0.368355
0.348966
0.329056
0.308345
0.286792
0.265221
0.245348
0.228985
0.217019
0.209209
0.204639
0.202214
0.201019
0.200458
0.200204
0.200092
0.200042
0.20002
0.20001
0.200005
0.200002
0.200001
0.2
0.2
0.2
0.2
0.2
0.2
0.2
0.496671
0.490974
0.483556
0.47463
0.464318
0.452647
0.439527
0.42453
0.406653
0.383609
0.351352
0.323862
0.297406
0.272023
0.249188
0.230755
0.217636
0.209378
0.204708
0.202272
0.201065
0.200488
0.200219
0.200097
0.200043
0.200019
0.200009
0.200005
0.200003
0.200002
0.200002
0.200001
0.2
0.2
0.2
0.2
0.2
0.2
0.2
0.2
0.482765
0.477277
0.470101
0.461376
0.451166
0.439388
0.42569
0.409183
0.38751
0.351352
0.205498
0.202637
0.201908
0.201228
0.200721
0.200394
0.200203
0.2001
0.200047
0.200022
0.20001
0.200004
0.200002
0.200001
0.2
0.2
0.2
0.2
0.2
0.2
0.200001
0.2
0.2
0.2
0.2
0.2
0.2
0.2
0.2
0.2
0.469637
0.464265
0.457231
0.448629
0.438412
0.426355
0.41188
0.393663
0.368355
0.323862
0.202637
0.200046
0.200018
0.200012
0.200007
0.200004
0.200002
0.200001
0.2
0.2
0.2
0.2
0.2
0.2
0.2
0.2
0.2
0.2
0.2
0.2
0.2
0.2
0.2
0.2
0.2
0.2
0.2
0.2
0.2
0.2
0.457211
0.451891
0.444925
0.43633
0.425967
0.413471
0.398039
0.377949
0.348966
0.297406
0.201908
0.200018
0.2
0.2
0.2
0.2
0.2
0.2
0.2
0.2
0.2
0.2
0.2
0.2
0.2
0.2
0.2
0.2
0.2
0.2
0.2
0.2
0.2
0.2
0.2
0.2
0.2
0.2
0.2
0.2
0.445393
0.440045
0.433047
0.424344
0.4137
0.400604
0.384032
0.361854
0.329056
0.272023
0.201228
0.200012
0.2
0.2
0.2
0.2
0.2
0.2
0.2
0.2
0.2
0.2
0.2
0.2
0.2
0.2
0.2
0.2
0.2
0.2
0.2
0.2
0.2
0.2
0.2
0.2
0.2
0.2
0.2
0.2
0.434025
0.428569
0.421443
0.412517
0.401453
0.387595
0.369683
0.345155
0.308345
0.249188
0.200721
0.200007
0.2
0.2
0.2
0.2
0.2
0.2
0.2
0.2
0.2
0.2
0.2
0.2
0.2
0.2
0.2
0.2
0.2
0.2
0.2
0.2
0.2
0.2
0.2
0.2
0.2
0.2
0.2
0.2
0.422945
0.417297
0.409945
0.40068
0.389057
0.374268
0.354779
0.327703
0.286792
0.230755
0.200394
0.200004
0.2
0.2
0.2
0.2
0.2
0.2
0.2
0.2
0.2
0.2
0.2
0.2
0.2
0.2
0.2
0.2
0.2
0.2
0.2
0.2
0.2
0.2
0.2
0.2
0.2
0.2
0.2
0.2
0.411985
0.406056
0.398376
0.388654
0.376332
0.360416
0.339124
0.309283
0.265221
0.217636
0.200203
0.200002
0.2
0.2
0.2
0.2
0.2
0.2
0.2
0.2
0.2
0.2
0.2
0.2
0.2
0.2
0.2
0.2
0.2
0.2
0.2
0.2
0.2
0.2
0.2
0.2
0.2
0.2
0.2
0.2
0.40097
0.394663
0.386555
0.376254
0.363069
0.345824
0.322625
0.289849
0.245348
0.209378
0.2001
0.200001
0.2
0.2
0.2
0.2
0.2
0.2
0.2
0.2
0.2
0.2
0.2
0.2
0.2
0.2
0.2
0.2
0.2
0.2
0.2
0.2
0.2
0.2
0.2
0.2
0.2
0.2
0.2
0.2
0.389716
0.382931
0.37428
0.363259
0.349041
0.330337
0.305131
0.269961
0.228985
0.204708
0.200047
0.2
0.2
0.2
0.2
0.2
0.2
0.2
0.2
0.2
0.2
0.2
0.2
0.2
0.2
0.2
0.2
0.2
0.2
0.2
0.2
0.2
0.2
0.2
0.2
0.2
0.2
0.2
0.2
0.2
0.378027
0.37064
0.361314
0.349427
0.334054
0.313926
0.286662
0.250911
0.217019
0.202272
0.200022
0.2
0.2
0.2
0.2
0.2
0.2
0.2
0.2
0.2
0.2
0.2
0.2
0.2
0.2
0.2
0.2
0.2
0.2
0.2
0.2
0.2
0.2
0.2
0.2
0.2
0.2
0.2
0.2
0.2
0.365662
0.357531
0.347394
0.334539
0.318063
0.296471
0.267778
0.234306
0.209209
0.201065
0.20001
0.2
0.2
0.2
0.2
0.2
0.2
0.2
0.2
0.2
0.2
0.2
0.2
0.2
0.2
0.2
0.2
0.2
0.2
0.2
0.2
0.2
0.2
0.2
0.2
0.2
0.2
0.2
0.2
0.2
0.35234
0.343321
0.332287
0.318524
0.300992
0.278148
0.249642
0.22127
0.204639
0.200488
0.200004
0.2
0.2
0.2
0.2
0.2
0.2
0.2
0.2
0.2
0.2
0.2
0.2
0.2
0.2
0.2
0.2
0.2
0.2
0.2
0.2
0.2
0.2
0.2
0.2
0.2
0.2
0.2
0.2
0.2
0.33777
0.327779
0.315918
0.301306
0.282836
0.259687
0.233655
0.212055
0.202214
0.200219
0.200002
0.2
0.2
0.2
0.2
0.2
0.2
0.2
0.2
0.2
0.2
0.2
0.2
0.2
0.2
0.2
0.2
0.2
0.2
0.2
0.2
0.2
0.2
0.2
0.2
0.2
0.2
0.2
0.2
0.2
0.321745
0.310788
0.298113
0.282798
0.264087
0.242307
0.220849
0.206231
0.201019
0.200097
0.200001
0.2
0.2
0.2
0.2
0.2
0.2
0.2
0.2
0.2
0.2
0.2
0.2
0.2
0.2
0.2
0.2
0.2
0.2
0.2
0.2
0.2
0.2
0.2
0.2
0.2
0.2
0.2
0.2
0.2
0.303844
0.292002
0.278776
0.263425
0.245814
0.227299
0.211607
0.202969
0.200458
0.200043
0.2
0.2
0.2
0.2
0.2
0.2
0.2
0.2
0.2
0.2
0.2
0.2
0.2
0.2
0.2
0.2
0.2
0.2
0.2
0.2
0.2
0.2
0.2
0.2
0.2
0.2
0.2
0.2
0.2
0.2
0.283637
0.271417
0.258435
0.244294
0.229435
0.215603
0.20573
0.201331
0.200204
0.200019
0.2
0.2
0.2
0.2
0.2
0.2
0.2
0.2
0.2
0.2
0.2
0.2
0.2
0.2
0.2
0.2
0.2
0.2
0.2
0.2
0.2
0.2
0.2
0.2
0.2
0.2
0.2
0.2
0.2
0.2
0.261367
0.249918
0.238521
0.227099
0.216324
0.207649
0.202519
0.200574
0.200092
0.200009
0.2
0.2
0.2
0.2
0.2
0.2
0.2
0.2
0.2
0.2
0.2
0.2
0.2
0.2
0.2
0.2
0.2
0.2
0.2
0.2
0.2
0.2
0.2
0.2
0.2
0.2
0.2
0.2
0.2
0.2
0.238801
0.229724
0.221339
0.213742
0.20746
0.203171
0.201009
0.200241
0.200042
0.200005
0.2
0.2
0.2
0.2
0.2
0.2
0.2
0.2
0.2
0.2
0.2
0.2
0.2
0.2
0.2
0.2
0.2
0.2
0.2
0.2
0.2
0.2
0.2
0.2
0.2
0.2
0.2
0.2
0.2
0.2
0.219612
0.214045
0.209312
0.205502
0.202767
0.201137
0.200376
0.2001
0.20002
0.200003
0.2
0.2
0.2
0.2
0.2
0.2
0.2
0.2
0.2
0.2
0.2
0.2
0.2
0.2
0.2
0.2
0.2
0.2
0.2
0.2
0.2
0.2
0.2
0.2
0.2
0.2
0.2
0.2
0.2
0.2
0.207429
0.205021
0.203131
0.201758
0.200863
0.200364
0.200131
0.20004
0.20001
0.200002
0.2
0.2
0.2
0.2
0.2
0.2
0.2
0.2
0.2
0.2
0.2
0.2
0.2
0.2
0.2
0.2
0.2
0.2
0.2
0.2
0.2
0.2
0.2
0.2
0.2
0.2
0.2
0.2
0.2
0.2
0.202138
0.201404
0.200853
0.200473
0.200236
0.200105
0.200042
0.200015
0.200005
0.200002
0.200001
0.2
0.2
0.2
0.2
0.2
0.2
0.2
0.2
0.2
0.2
0.2
0.2
0.2
0.2
0.2
0.2
0.2
0.2
0.2
0.2
0.2
0.2
0.2
0.2
0.2
0.2
0.2
0.2
0.2
0.200503
0.200328
0.200199
0.200111
0.200057
0.200027
0.200012
0.200005
0.200002
0.200001
0.2
0.2
0.2
0.2
0.2
0.2
0.2
0.2
0.2
0.2
0.2
0.2
0.2
0.2
0.2
0.2
0.2
0.2
0.2
0.2
0.2
0.2
0.2
0.2
0.2
0.2
0.2
0.2
0.2
0.2
0.200101
0.200066
0.20004
0.200023
0.200012
0.200006
0.200003
0.200001
0.200001
0.2
0.2
0.2
0.2
0.2
0.2
0.2
0.2
0.2
0.2
0.2
0.2
0.2
0.2
0.2
0.2
0.2
0.2
0.2
0.2
0.2
0.2
0.2
0.2
0.2
0.2
0.2
0.2
0.2
0.2
0.2
0.200018
0.200011
0.200007
0.200004
0.200002
0.200001
0.200001
0.2
0.2
0.2
0.2
0.2
0.2
0.2
0.2
0.2
0.2
0.2
0.2
0.2
0.2
0.2
0.2
0.2
0.2
0.2
0.2
0.2
0.2
0.2
0.2
0.2
0.2
0.2
0.2
0.2
0.2
0.2
0.2
0.2
0.200003
0.200002
0.200001
0.200001
0.2
0.2
0.2
0.2
0.2
0.2
0.2
0.2
0.2
0.2
0.2
0.2
0.2
0.2
0.2
0.2
0.2
0.2
0.2
0.2
0.2
0.2
0.2
0.2
0.2
0.2
0.2
0.2
0.2
0.2
0.2
0.2
0.2
0.2
0.2
0.2
0.2
0.2
0.2
0.2
0.2
0.2
0.2
0.2
0.2
0.2
0.2
0.2
0.2
0.2
0.2
0.2
0.2
0.2
0.2
0.2
0.2
0.2
0.2
0.2
0.2
0.2
0.2
0.2
0.2
0.2
0.2
0.2
0.2
0.2
0.2
0.2
0.2
0.2
0.2
0.2
0.2
0.2
0.2
0.2
0.2
0.2
0.2
0.2
0.2
0.2
0.2
0.2
0.2
0.2
0.2
0.2
0.2
0.2
0.2
0.2
0.2
0.2
0.2
0.2
0.2
0.2
0.2
0.2
0.2
0.2
0.2
0.2
0.2
0.2
0.2
0.2
0.2
0.2
0.2
0.2
0.2
0.2
0.2
0.2
0.2
0.2
0.2
0.2
0.2
0.2
0.2
0.2
0.2
0.2
0.2
0.2
0.2
0.2
0.2
0.2
0.2
0.2
0.2
0.2
0.2
0.2
0.2
0.2
0.2
0.2
0.2
0.2
0.2
0.2
0.2
0.2
0.2
0.2
0.2
0.2
0.2
0.2
0.2
0.2
0.2
0.2
0.2
0.2
0.2
0.2
0.2
0.2
0.2
0.2
0.2
0.2
0.2
0.2
0.2
0.2
0.2
0.2
0.2
0.2
0.2
0.2
0.2
0.2
0.2
0.2
0.2
0.2
0.2
0.2
0.2
0.2
0.2
0.2
0.2
0.2
0.2
0.2
0.2
0.2
0.2
0.2
0.2
0.2
0.2
0.2
0.2
0.2
0.2
0.2
0.2
0.2
0.2
0.2
0.2
0.2
0.2
0.2
0.2
0.2
0.2
0.2
0.2
0.2
0.2
0.2
0.2
0.2
0.2
0.2
0.2
0.2
0.2
0.2
0.2
0.2
0.725289
0.703496
0.678156
0.652546
0.628216
0.60571
0.585089
0.566211
0.548936
0.533129
0.518647
0.505337
0.493009
0.481493
0.4707
0.46051
0.450812
0.441503
0.432486
0.423665
0.414934
0.406159
0.397116
0.387336
0.376279
0.363182
0.346634
0.324248
0.293053
0.254267
0.221389
0.20574
0.201194
0.200207
0.20003
0.200004
0.2
0.2
0.2
0.2
0.703501
0.684492
0.66226
0.639415
0.617288
0.59645
0.577046
0.559062
0.542454
0.527147
0.513038
0.500001
0.487851
0.476466
0.46576
0.455619
0.445941
0.436625
0.427577
0.418703
0.409893
0.400995
0.391726
0.381546
0.369928
0.355972
0.338079
0.313717
0.280576
0.242893
0.215386
0.203928
0.200805
0.20014
0.20002
0.200002
0.2
0.2
0.2
0.2
0.67815
0.662265
0.643354
0.623486
0.603802
0.584853
0.566867
0.549956
0.534163
0.519473
0.505832
0.493132
0.481214
0.470019
0.459458
0.449428
0.439831
0.430574
0.421565
0.412707
0.403877
0.394872
0.385269
0.374595
0.362253
0.347164
0.327514
0.300782
0.266122
0.231468
0.210254
0.202509
0.20051
0.200089
0.200013
0.200002
0.2
0.2
0.2
0.2
0.652548
0.639417
0.623485
0.606348
0.588951
0.57181
0.555235
0.539418
0.524463
0.510409
0.497245
0.484865
0.473202
0.462218
0.451825
0.441931
0.432444
0.423275
0.414328
0.405491
0.396589
0.387279
0.377133
0.36572
0.35227
0.33549
0.313403
0.284014
0.249416
0.220656
0.206185
0.201475
0.2003
0.200053
0.200008
0.200001
0.2
0.2
0.2
0.2
0.628217
0.617287
0.6038
0.58895
0.573504
0.557965
0.542676
0.527862
0.513667
0.50018
0.487397
0.475274
0.46384
0.453041
0.442799
0.433029
0.423638
0.41453
0.405587
0.396632
0.387335
0.377343
0.3663
0.353593
0.338234
0.318738
0.293352
0.262116
0.231496
0.211579
0.20329
0.200787
0.200164
0.200029
0.200004
0.200001
0.2
0.2
0.2
0.2
0.60571
0.596449
0.584852
0.571809
0.557965
0.54378
0.52958
0.515598
0.502003
0.488897
0.476305
0.464343
0.453039
0.442346
0.432186
0.422466
0.413075
0.403872
0.394644
0.385038
0.374795
0.363554
0.350744
0.33551
0.31668
0.293036
0.264768
0.236379
0.215656
0.205304
0.201516
0.200378
0.200082
0.200015
0.200002
0.2
0.2
0.2
0.2
0.2
0.585089
0.577045
0.566866
0.555235
0.542676
0.52958
0.516235
0.502853
0.489589
0.476525
0.463876
0.451855
0.440498
0.429748
0.419496
0.4096
0.399862
0.389964
0.379639
0.368604
0.35642
0.342452
0.325855
0.305703
0.281609
0.255218
0.231217
0.214483
0.205667
0.201957
0.200608
0.200166
0.200039
0.200008
0.200001
0.2
0.2
0.2
0.2
0.2
0.566211
0.559061
0.549956
0.539418
0.527862
0.515598
0.502853
0.489771
0.476401
0.462931
0.449718
0.437207
0.425424
0.414219
0.403355
0.392487
0.381323
0.369573
0.356795
0.342383
0.325567
0.305589
0.282328
0.257471
0.234891
0.218331
0.208542
0.203673
0.201506
0.200594
0.200218
0.200067
0.200017
0.200004
0.200001
0.2
0.2
0.2
0.2
0.2
0.548936
0.542454
0.534163
0.524463
0.513667
0.502003
0.489589
0.476401
0.462427
0.447689
0.432544
0.418527
0.40531
0.392356
0.379213
0.365507
0.350712
0.334122
0.314966
0.292842
0.268644
0.245246
0.22632
0.213691
0.206565
0.203007
0.201358
0.200623
0.200297
0.200147
0.200071
0.200026
0.200007
0.200002
0.2
0.2
0.2
0.2
0.2
0.2
0.53313
0.527146
0.519473
0.510409
0.50018
0.488897
0.476525
0.462931
0.447689
0.429589
0.406132
0.387268
0.368996
0.350155
0.329944
0.307813
0.283951
0.259963
0.238714
0.222609
0.212086
0.206015
0.202843
0.201301
0.200587
0.200266
0.200124
0.200063
0.200036
0.200025
0.200021
0.20001
0.200003
0.200001
0.2
0.2
0.2
0.2
0.2
0.2
0.518647
0.513038
0.505832
0.497245
0.487397
0.476305
0.463876
0.449718
0.432544
0.406132
0.212269
0.20736
0.20656
0.205305
0.20395
0.202704
0.201694
0.200972
0.200517
0.200258
0.200123
0.200056
0.200025
0.200011
0.200005
0.200002
0.200001
0.200001
0.2
0.2
0.200008
0.200003
0.200001
0.2
0.2
0.2
0.2
0.2
0.2
0.2
0.505337
0.500001
0.493132
0.484865
0.475274
0.464343
0.451855
0.437207
0.418527
0.387267
0.20736
0.200185
0.200087
0.200068
0.200047
0.20003
0.200017
0.200009
0.200005
0.200002
0.200001
0.2
0.2
0.2
0.2
0.2
0.2
0.2
0.2
0.2
0.200003
0.200001
0.2
0.2
0.2
0.2
0.2
0.2
0.2
0.2
0.493009
0.487851
0.481214
0.473202
0.46384
0.453039
0.440498
0.425424
0.40531
0.368996
0.20656
0.200087
0.200002
0.200001
0.2
0.2
0.2
0.2
0.2
0.2
0.2
0.2
0.2
0.2
0.2
0.2
0.2
0.2
0.2
0.2
0.200001
0.2
0.2
0.2
0.2
0.2
0.2
0.2
0.2
0.2
0.481493
0.476466
0.470019
0.462218
0.453041
0.442346
0.429748
0.414219
0.392356
0.350155
0.205305
0.200068
0.200001
0.2
0.2
0.2
0.2
0.2
0.2
0.2
0.2
0.2
0.2
0.2
0.2
0.2
0.2
0.2
0.2
0.2
0.2
0.2
0.2
0.2
0.2
0.2
0.2
0.2
0.2
0.2
0.4707
0.46576
0.459458
0.451825
0.442799
0.432186
0.419496
0.403355
0.379213
0.329944
0.20395
0.200047
0.2
0.2
0.2
0.2
0.2
0.2
0.2
0.2
0.2
0.2
0.2
0.2
0.2
0.2
0.2
0.2
0.2
0.2
0.2
0.2
0.2
0.2
0.2
0.2
0.2
0.2
0.2
0.2
0.46051
0.455619
0.449428
0.441931
0.433029
0.422466
0.4096
0.392487
0.365508
0.307813
0.202704
0.20003
0.2
0.2
0.2
0.2
0.2
0.2
0.2
0.2
0.2
0.2
0.2
0.2
0.2
0.2
0.2
0.2
0.2
0.2
0.2
0.2
0.2
0.2
0.2
0.2
0.2
0.2
0.2
0.2
0.450812
0.445941
0.439831
0.432444
0.423638
0.413075
0.399862
0.381323
0.350712
0.283951
0.201694
0.200017
0.2
0.2
0.2
0.2
0.2
0.2
0.2
0.2
0.2
0.2
0.2
0.2
0.2
0.2
0.2
0.2
0.2
0.2
0.2
0.2
0.2
0.2
0.2
0.2
0.2
0.2
0.2
0.2
0.441503
0.436625
0.430574
0.423275
0.41453
0.403872
0.389964
0.369573
0.334123
0.259963
0.200972
0.200009
0.2
0.2
0.2
0.2
0.2
0.2
0.2
0.2
0.2
0.2
0.2
0.2
0.2
0.2
0.2
0.2
0.2
0.2
0.2
0.2
0.2
0.2
0.2
0.2
0.2
0.2
0.2
0.2
0.432486
0.427577
0.421565
0.414328
0.405587
0.394644
0.379639
0.356795
0.314966
0.238714
0.200517
0.200005
0.2
0.2
0.2
0.2
0.2
0.2
0.2
0.2
0.2
0.2
0.2
0.2
0.2
0.2
0.2
0.2
0.2
0.2
0.2
0.2
0.2
0.2
0.2
0.2
0.2
0.2
0.2
0.2
0.423665
0.418703
0.412707
0.405491
0.396632
0.385038
0.368604
0.342383
0.292842
0.222609
0.200258
0.200002
0.2
0.2
0.2
0.2
0.2
0.2
0.2
0.2
0.2
0.2
0.2
0.2
0.2
0.2
0.2
0.2
0.2
0.2
0.2
0.2
0.2
0.2
0.2
0.2
0.2
0.2
0.2
0.2
0.414934
0.409893
0.403877
0.396589
0.387335
0.374795
0.35642
0.325568
0.268644
0.212086
0.200123
0.200001
0.2
0.2
0.2
0.2
0.2
0.2
0.2
0.2
0.2
0.2
0.2
0.2
0.2
0.2
0.2
0.2
0.2
0.2
0.2
0.2
0.2
0.2
0.2
0.2
0.2
0.2
0.2
0.2
0.406159
0.400995
0.394872
0.387279
0.377343
0.363554
0.342452
0.305589
0.245246
0.206015
0.200056
0.2
0.2
0.2
0.2
0.2
0.2
0.2
0.2
0.2
0.2
0.2
0.2
0.2
0.2
0.2
0.2
0.2
0.2
0.2
0.2
0.2
0.2
0.2
0.2
0.2
0.2
0.2
0.2
0.2
0.397116
0.391726
0.385269
0.377133
0.3663
0.350744
0.325856
0.282328
0.22632
0.202843
0.200025
0.2
0.2
0.2
0.2
0.2
0.2
0.2
0.2
0.2
0.2
0.2
0.2
0.2
0.2
0.2
0.2
0.2
0.2
0.2
0.2
0.2
0.2
0.2
0.2
0.2
0.2
0.2
0.2
0.2
0.387336
0.381546
0.374595
0.36572
0.353593
0.33551
0.305703
0.257471
0.213691
0.201301
0.200011
0.2
0.2
0.2
0.2
0.2
0.2
0.2
0.2
0.2
0.2
0.2
0.2
0.2
0.2
0.2
0.2
0.2
0.2
0.2
0.2
0.2
0.2
0.2
0.2
0.2
0.2
0.2
0.2
0.2
0.376279
0.369928
0.362253
0.35227
0.338234
0.31668
0.281609
0.234891
0.206565
0.200587
0.200005
0.2
0.2
0.2
0.2
0.2
0.2
0.2
0.2
0.2
0.2
0.2
0.2
0.2
0.2
0.2
0.2
0.2
0.2
0.2
0.2
0.2
0.2
0.2
0.2
0.2
0.2
0.2
0.2
0.2
0.363182
0.355972
0.347164
0.33549
0.318738
0.293036
0.255218
0.218331
0.203007
0.200266
0.200002
0.2
0.2
0.2
0.2
0.2
0.2
0.2
0.2
0.2
0.2
0.2
0.2
0.2
0.2
0.2
0.2
0.2
0.2
0.2
0.2
0.2
0.2
0.2
0.2
0.2
0.2
0.2
0.2
0.2
0.346634
0.338079
0.327515
0.313403
0.293352
0.264768
0.231217
0.208542
0.201358
0.200124
0.200001
0.2
0.2
0.2
0.2
0.2
0.2
0.2
0.2
0.2
0.2
0.2
0.2
0.2
0.2
0.2
0.2
0.2
0.2
0.2
0.2
0.2
0.2
0.2
0.2
0.2
0.2
0.2
0.2
0.2
0.324248
0.313717
0.300782
0.284014
0.262116
0.236379
0.214483
0.203673
0.200623
0.200063
0.200001
0.2
0.2
0.2
0.2
0.2
0.2
0.2
0.2
0.2
0.2
0.2
0.2
0.2
0.2
0.2
0.2
0.2
0.2
0.2
0.2
0.2
0.2
0.2
0.2
0.2
0.2
0.2
0.2
0.2
0.293053
0.280577
0.266122
0.249416
0.231496
0.215656
0.205667
0.201506
0.200297
0.200036
0.2
0.2
0.2
0.2
0.2
0.2
0.2
0.2
0.2
0.2
0.2
0.2
0.2
0.2
0.2
0.2
0.2
0.2
0.2
0.2
0.2
0.2
0.2
0.2
0.2
0.2
0.2
0.2
0.2
0.2
0.254267
0.242893
0.231468
0.220656
0.211579
0.205304
0.201957
0.200594
0.200147
0.200025
0.2
0.2
0.2
0.2
0.2
0.2
0.2
0.2
0.2
0.2
0.2
0.2
0.2
0.2
0.2
0.2
0.2
0.2
0.2
0.2
0.2
0.2
0.2
0.2
0.2
0.2
0.2
0.2
0.2
0.2
0.221389
0.215386
0.210254
0.206185
0.20329
0.201516
0.200608
0.200218
0.200071
0.200021
0.200008
0.200003
0.200001
0.2
0.2
0.2
0.2
0.2
0.2
0.2
0.2
0.2
0.2
0.2
0.2
0.2
0.2
0.2
0.2
0.2
0.2
0.2
0.2
0.2
0.2
0.2
0.2
0.2
0.2
0.2
0.20574
0.203928
0.202509
0.201475
0.200787
0.200378
0.200166
0.200067
0.200026
0.20001
0.200003
0.200001
0.2
0.2
0.2
0.2
0.2
0.2
0.2
0.2
0.2
0.2
0.2
0.2
0.2
0.2
0.2
0.2
0.2
0.2
0.2
0.2
0.2
0.2
0.2
0.2
0.2
0.2
0.2
0.2
0.201194
0.200805
0.20051
0.2003
0.200164
0.200082
0.200039
0.200017
0.200007
0.200003
0.200001
0.2
0.2
0.2
0.2
0.2
0.2
0.2
0.2
0.2
0.2
0.2
0.2
0.2
0.2
0.2
0.2
0.2
0.2
0.2
0.2
0.2
0.2
0.2
0.2
0.2
0.2
0.2
0.2
0.2
0.200207
0.20014
0.200089
0.200053
0.200029
0.200015
0.200008
0.200004
0.200002
0.200001
0.2
0.2
0.2
0.2
0.2
0.2
0.2
0.2
0.2
0.2
0.2
0.2
0.2
0.2
0.2
0.2
0.2
0.2
0.2
0.2
0.2
0.2
0.2
0.2
0.2
0.2
0.2
0.2
0.2
0.2
0.20003
0.20002
0.200013
0.200008
0.200004
0.200002
0.200001
0.200001
0.2
0.2
0.2
0.2
0.2
0.2
0.2
0.2
0.2
0.2
0.2
0.2
0.2
0.2
0.2
0.2
0.2
0.2
0.2
0.2
0.2
0.2
0.2
0.2
0.2
0.2
0.2
0.2
0.2
0.2
0.2
0.2
0.200004
0.200002
0.200002
0.200001
0.200001
0.2
0.2
0.2
0.2
0.2
0.2
0.2
0.2
0.2
0.2
0.2
0.2
0.2
0.2
0.2
0.2
0.2
0.2
0.2
0.2
0.2
0.2
0.2
0.2
0.2
0.2
0.2
0.2
0.2
0.2
0.2
0.2
0.2
0.2
0.2
0.2
0.2
0.2
0.2
0.2
0.2
0.2
0.2
0.2
0.2
0.2
0.2
0.2
0.2
0.2
0.2
0.2
0.2
0.2
0.2
0.2
0.2
0.2
0.2
0.2
0.2
0.2
0.2
0.2
0.2
0.2
0.2
0.2
0.2
0.2
0.2
0.2
0.2
0.2
0.2
0.2
0.2
0.2
0.2
0.2
0.2
0.2
0.2
0.2
0.2
0.2
0.2
0.2
0.2
0.2
0.2
0.2
0.2
0.2
0.2
0.2
0.2
0.2
0.2
0.2
0.2
0.2
0.2
0.2
0.2
0.2
0.2
0.2
0.2
0.2
0.2
0.2
0.2
0.2
0.2
0.2
0.2
0.2
0.2
0.2
0.2
0.2
0.2
0.2
0.2
0.2
0.2
0.2
0.2
0.2
0.2
0.2
0.2
0.2
0.2
0.2
0.2
0.2
0.2
0.2
0.2
0.2
0.2
0.2
0.2
0.2
0.2
0.2
0.2
0.2
0.2
0.2
0.2
0.2
0.2
0.2
0.2
0.2
0.2
0.2
0.2
0.2
0.2
0.2
0.2
0.2
0.2
0.2
0.2
0.2
0.2
0.2
0.2
0.2
0.2
0.2
0.2
0.2
0.2
0.2
0.2
0.2
0.2
0.2
0.2
0.2
0.2
0.2
0.2
0.2
0.2
0.2
0.2
0.2
0.2
0.774546
0.751329
0.721436
0.690587
0.661578
0.635289
0.611781
0.590785
0.571931
0.554918
0.539506
0.525486
0.512665
0.500861
0.489894
0.479638
0.469968
0.460765
0.451917
0.44331
0.434821
0.426308
0.417578
0.408399
0.398454
0.387247
0.373946
0.357064
0.333937
0.300686
0.257583
0.221135
0.205071
0.200924
0.200138
0.200017
0.200002
0.2
0.2
0.2
0.751346
0.728891
0.702168
0.674817
0.648733
0.624676
0.602806
0.582977
0.56496
0.548564
0.533618
0.519953
0.507405
0.495807
0.485001
0.474872
0.465297
0.456163
0.447357
0.438767
0.430266
0.421702
0.412872
0.403537
0.393357
0.381789
0.367907
0.350048
0.325297
0.290016
0.24737
0.215895
0.203638
0.200653
0.200097
0.200012
0.200001
0.2
0.2
0.2
0.721419
0.702172
0.679474
0.65597
0.633103
0.611561
0.59157
0.573107
0.556099
0.540463
0.526098
0.512885
0.500696
0.489375
0.4788
0.468861
0.459442
0.450432
0.441721
0.433191
0.424712
0.416113
0.407192
0.397701
0.387267
0.375282
0.360696
0.341623
0.314883
0.277572
0.23682
0.211243
0.202465
0.200437
0.200065
0.200008
0.200001
0.2
0.2
0.2
0.690587
0.674825
0.655973
0.636035
0.616188
0.597049
0.578879
0.561779
0.545804
0.530957
0.5172
0.504467
0.492652
0.481635
0.471322
0.461601
0.452362
0.443495
0.434886
0.426412
0.417925
0.409246
0.400181
0.390453
0.379642
0.367049
0.351454
0.330687
0.30143
0.262668
0.226264
0.207332
0.201558
0.200275
0.200041
0.200005
0.2
0.2
0.2
0.2
0.661581
0.648739
0.633105
0.616189
0.598934
0.581876
0.565318
0.549462
0.534435
0.520306
0.507101
0.494802
0.483323
0.472594
0.462524
0.453002
0.443918
0.435156
0.426592
0.418085
0.409476
0.400599
0.391229
0.381047
0.369549
0.3559
0.33864
0.315309
0.283116
0.24516
0.216505
0.204303
0.200904
0.200161
0.200024
0.200003
0.2
0.2
0.2
0.2
0.635291
0.62468
0.611563
0.59705
0.581876
0.566521
0.551318
0.536505
0.522249
0.508676
0.495873
0.483866
0.472633
0.462114
0.45221
0.442803
0.433771
0.424984
0.416293
0.407557
0.398612
0.389254
0.379205
0.36805
0.355139
0.339408
0.319122
0.292032
0.25824
0.226729
0.208721
0.202225
0.200477
0.200087
0.200013
0.200002
0.2
0.2
0.2
0.2
0.611782
0.602807
0.591571
0.578879
0.565318
0.551318
0.537189
0.523161
0.509414
0.496115
0.483425
0.471482
0.460309
0.449823
0.4399
0.430401
0.42117
0.412061
0.402921
0.393571
0.383794
0.373294
0.36165
0.348242
0.332143
0.312073
0.286832
0.257348
0.229761
0.211816
0.203776
0.201012
0.20023
0.200044
0.200007
0.200001
0.2
0.2
0.2
0.2
0.590785
0.582978
0.573108
0.56178
0.549462
0.536505
0.523161
0.509611
0.496002
0.482498
0.469383
0.457083
0.445597
0.434772
0.424419
0.414352
0.404402
0.394377
0.384056
0.37315
0.361265
0.347854
0.332167
0.313303
0.290641
0.265072
0.240257
0.221061
0.209489
0.203819
0.201378
0.200416
0.200103
0.200021
0.200003
0.2
0.2
0.2
0.2
0.2
0.571932
0.56496
0.556099
0.545805
0.534435
0.52225
0.509414
0.496002
0.482002
0.467394
0.452558
0.438979
0.426357
0.414309
0.402538
0.39079
0.378803
0.366233
0.352607
0.337287
0.319511
0.298688
0.275194
0.251371
0.231021
0.216737
0.208332
0.203997
0.201923
0.200942
0.200446
0.20016
0.200043
0.200009
0.200001
0.2
0.2
0.2
0.2
0.2
0.554918
0.548564
0.540463
0.530957
0.520306
0.508676
0.496115
0.482498
0.467394
0.449722
0.427471
0.410079
0.393851
0.377765
0.361222
0.343693
0.324692
0.30392
0.281684
0.259427
0.23955
0.224049
0.213419
0.206935
0.203388
0.201613
0.200777
0.200397
0.20023
0.200159
0.200129
0.200058
0.200017
0.200004
0.200001
0.2
0.2
0.2
0.2
0.2
0.539507
0.533618
0.526098
0.517201
0.507101
0.495873
0.483425
0.469383
0.452558
0.427471
0.215686
0.210147
0.209672
0.208495
0.207017
0.205468
0.203999
0.202723
0.201715
0.200999
0.200543
0.200277
0.200135
0.200063
0.200029
0.200013
0.200006
0.200003
0.200002
0.200002
0.20005
0.20002
0.200006
0.200001
0.2
0.2
0.2
0.2
0.2
0.2
0.525486
0.519953
0.512886
0.504467
0.494802
0.483866
0.471482
0.457083
0.438979
0.410079
0.210147
0.20031
0.20016
0.200138
0.200107
0.200077
0.200051
0.200032
0.200018
0.20001
0.200005
0.200002
0.200001
0.2
0.2
0.2
0.2
0.2
0.2
0.2
0.200017
0.200007
0.200002
0.2
0.2
0.2
0.2
0.2
0.2
0.2
0.512665
0.507406
0.500697
0.492653
0.483323
0.472633
0.460309
0.445597
0.426357
0.393851
0.209672
0.20016
0.200004
0.200002
0.200001
0.200001
0.200001
0.2
0.2
0.2
0.2
0.2
0.2
0.2
0.2
0.2
0.2
0.2
0.2
0.2
0.200005
0.200002
0.200001
0.2
0.2
0.2
0.2
0.2
0.2
0.2
0.500861
0.495807
0.489375
0.481635
0.472595
0.462114
0.449823
0.434772
0.414309
0.377765
0.208495
0.200138
0.200002
0.2
0.2
0.2
0.2
0.2
0.2
0.2
0.2
0.2
0.2
0.2
0.2
0.2
0.2
0.2
0.2
0.2
0.200001
0.200001
0.2
0.2
0.2
0.2
0.2
0.2
0.2
0.2
0.489894
0.485001
0.4788
0.471322
0.462524
0.45221
0.439901
0.424419
0.402538
0.361222
0.207017
0.200107
0.200001
0.2
0.2
0.2
0.2
0.2
0.2
0.2
0.2
0.2
0.2
0.2
0.2
0.2
0.2
0.2
0.2
0.2
0.2
0.2
0.2
0.2
0.2
0.2
0.2
0.2
0.2
0.2
0.479638
0.474872
0.468861
0.461601
0.453002
0.442803
0.430401
0.414352
0.39079
0.343693
0.205468
0.200077
0.200001
0.2
0.2
0.2
0.2
0.2
0.2
0.2
0.2
0.2
0.2
0.2
0.2
0.2
0.2
0.2
0.2
0.2
0.2
0.2
0.2
0.2
0.2
0.2
0.2
0.2
0.2
0.2
0.469968
0.465297
0.459442
0.452362
0.443918
0.433771
0.42117
0.404402
0.378803
0.324692
0.203999
0.200051
0.200001
0.2
0.2
0.2
0.2
0.2
0.2
0.2
0.2
0.2
0.2
0.2
0.2
0.2
0.2
0.2
0.2
0.2
0.2
0.2
0.2
0.2
0.2
0.2
0.2
0.2
0.2
0.2
0.460766
0.456163
0.450432
0.443495
0.435156
0.424985
0.412061
0.394377
0.366233
0.30392
0.202723
0.200032
0.2
0.2
0.2
0.2
0.2
0.2
0.2
0.2
0.2
0.2
0.2
0.2
0.2
0.2
0.2
0.2
0.2
0.2
0.2
0.2
0.2
0.2
0.2
0.2
0.2
0.2
0.2
0.2
0.451917
0.447357
0.441721
0.434886
0.426592
0.416293
0.402921
0.384056
0.352607
0.281684
0.201715
0.200018
0.2
0.2
0.2
0.2
0.2
0.2
0.2
0.2
0.2
0.2
0.2
0.2
0.2
0.2
0.2
0.2
0.2
0.2
0.2
0.2
0.2
0.2
0.2
0.2
0.2
0.2
0.2
0.2
0.44331
0.438767
0.433191
0.426412
0.418085
0.407557
0.393571
0.37315
0.337287
0.259427
0.200999
0.20001
0.2
0.2
0.2
0.2
0.2
0.2
0.2
0.2
0.2
0.2
0.2
0.2
0.2
0.2
0.2
0.2
0.2
0.2
0.2
0.2
0.2
0.2
0.2
0.2
0.2
0.2
0.2
0.2
0.434821
0.430266
0.424712
0.417925
0.409476
0.398612
0.383794
0.361265
0.319511
0.23955
0.200543
0.200005
0.2
0.2
0.2
0.2
0.2
0.2
0.2
0.2
0.2
0.2
0.2
0.2
0.2
0.2
0.2
0.2
0.2
0.2
0.2
0.2
0.2
0.2
0.2
0.2
0.2
0.2
0.2
0.2
0.426308
0.421702
0.416113
0.409246
0.400599
0.389254
0.373294
0.347854
0.298688
0.224049
0.200277
0.200002
0.2
0.2
0.2
0.2
0.2
0.2
0.2
0.2
0.2
0.2
0.2
0.2
0.2
0.2
0.2
0.2
0.2
0.2
0.2
0.2
0.2
0.2
0.2
0.2
0.2
0.2
0.2
0.2
0.417578
0.412872
0.407192
0.400181
0.391229
0.379205
0.36165
0.332168
0.275194
0.213419
0.200135
0.200001
0.2
0.2
0.2
0.2
0.2
0.2
0.2
0.2
0.2
0.2
0.2
0.2
0.2
0.2
0.2
0.2
0.2
0.2
0.2
0.2
0.2
0.2
0.2
0.2
0.2
0.2
0.2
0.2
0.408399
0.403537
0.397702
0.390454
0.381047
0.36805
0.348242
0.313303
0.251371
0.206935
0.200063
0.2
0.2
0.2
0.2
0.2
0.2
0.2
0.2
0.2
0.2
0.2
0.2
0.2
0.2
0.2
0.2
0.2
0.2
0.2
0.2
0.2
0.2
0.2
0.2
0.2
0.2
0.2
0.2
0.2
0.398454
0.393357
0.387267
0.379642
0.369549
0.355139
0.332143
0.290641
0.231021
0.203388
0.200029
0.2
0.2
0.2
0.2
0.2
0.2
0.2
0.2
0.2
0.2
0.2
0.2
0.2
0.2
0.2
0.2
0.2
0.2
0.2
0.2
0.2
0.2
0.2
0.2
0.2
0.2
0.2
0.2
0.2
0.387247
0.381789
0.375282
0.367049
0.3559
0.339408
0.312073
0.265072
0.216737
0.201613
0.200013
0.2
0.2
0.2
0.2
0.2
0.2
0.2
0.2
0.2
0.2
0.2
0.2
0.2
0.2
0.2
0.2
0.2
0.2
0.2
0.2
0.2
0.2
0.2
0.2
0.2
0.2
0.2
0.2
0.2
0.373946
0.367907
0.360696
0.351454
0.33864
0.319122
0.286832
0.240257
0.208332
0.200777
0.200006
0.2
0.2
0.2
0.2
0.2
0.2
0.2
0.2
0.2
0.2
0.2
0.2
0.2
0.2
0.2
0.2
0.2
0.2
0.2
0.2
0.2
0.2
0.2
0.2
0.2
0.2
0.2
0.2
0.2
0.357064
0.350048
0.341623
0.330687
0.315309
0.292032
0.257348
0.221061
0.203997
0.200397
0.200003
0.2
0.2
0.2
0.2
0.2
0.2
0.2
0.2
0.2
0.2
0.2
0.2
0.2
0.2
0.2
0.2
0.2
0.2
0.2
0.2
0.2
0.2
0.2
0.2
0.2
0.2
0.2
0.2
0.2
0.333937
0.325297
0.314883
0.30143
0.283116
0.258241
0.229761
0.209489
0.201923
0.20023
0.200002
0.2
0.2
0.2
0.2
0.2
0.2
0.2
0.2
0.2
0.2
0.2
0.2
0.2
0.2
0.2
0.2
0.2
0.2
0.2
0.2
0.2
0.2
0.2
0.2
0.2
0.2
0.2
0.2
0.2
0.300686
0.290016
0.277572
0.262668
0.24516
0.226729
0.211816
0.203819
0.200942
0.200159
0.200002
0.2
0.2
0.2
0.2
0.2
0.2
0.2
0.2
0.2
0.2
0.2
0.2
0.2
0.2
0.2
0.2
0.2
0.2
0.2
0.2
0.2
0.2
0.2
0.2
0.2
0.2
0.2
0.2
0.2
0.257583
0.24737
0.23682
0.226264
0.216505
0.208721
0.203776
0.201378
0.200446
0.200129
0.20005
0.200017
0.200005
0.200001
0.2
0.2
0.2
0.2
0.2
0.2
0.2
0.2
0.2
0.2
0.2
0.2
0.2
0.2
0.2
0.2
0.2
0.2
0.2
0.2
0.2
0.2
0.2
0.2
0.2
0.2
0.221135
0.215896
0.211243
0.207332
0.204303
0.202225
0.201012
0.200416
0.20016
0.200058
0.20002
0.200007
0.200002
0.200001
0.2
0.2
0.2
0.2
0.2
0.2
0.2
0.2
0.2
0.2
0.2
0.2
0.2
0.2
0.2
0.2
0.2
0.2
0.2
0.2
0.2
0.2
0.2
0.2
0.2
0.2
0.205071
0.203638
0.202465
0.201558
0.200904
0.200477
0.20023
0.200103
0.200043
0.200017
0.200006
0.200002
0.200001
0.2
0.2
0.2
0.2
0.2
0.2
0.2
0.2
0.2
0.2
0.2
0.2
0.2
0.2
0.2
0.2
0.2
0.2
0.2
0.2
0.2
0.2
0.2
0.2
0.2
0.2
0.2
0.200924
0.200653
0.200437
0.200275
0.200161
0.200087
0.200044
0.200021
0.200009
0.200004
0.200001
0.2
0.2
0.2
0.2
0.2
0.2
0.2
0.2
0.2
0.2
0.2
0.2
0.2
0.2
0.2
0.2
0.2
0.2
0.2
0.2
0.2
0.2
0.2
0.2
0.2
0.2
0.2
0.2
0.2
0.200138
0.200097
0.200065
0.200041
0.200024
0.200013
0.200007
0.200003
0.200001
0.200001
0.2
0.2
0.2
0.2
0.2
0.2
0.2
0.2
0.2
0.2
0.2
0.2
0.2
0.2
0.2
0.2
0.2
0.2
0.2
0.2
0.2
0.2
0.2
0.2
0.2
0.2
0.2
0.2
0.2
0.2
0.200017
0.200012
0.200008
0.200005
0.200003
0.200002
0.200001
0.2
0.2
0.2
0.2
0.2
0.2
0.2
0.2
0.2
0.2
0.2
0.2
0.2
0.2
0.2
0.2
0.2
0.2
0.2
0.2
0.2
0.2
0.2
0.2
0.2
0.2
0.2
0.2
0.2
0.2
0.2
0.2
0.2
0.200002
0.200001
0.200001
0.2
0.2
0.2
0.2
0.2
0.2
0.2
0.2
0.2
0.2
0.2
0.2
0.2
0.2
0.2
0.2
0.2
0.2
0.2
0.2
0.2
0.2
0.2
0.2
0.2
0.2
0.2
0.2
0.2
0.2
0.2
0.2
0.2
0.2
0.2
0.2
0.2
0.2
0.2
0.2
0.2
0.2
0.2
0.2
0.2
0.2
0.2
0.2
0.2
0.2
0.2
0.2
0.2
0.2
0.2
0.2
0.2
0.2
0.2
0.2
0.2
0.2
0.2
0.2
0.2
0.2
0.2
0.2
0.2
0.2
0.2
0.2
0.2
0.2
0.2
0.2
0.2
0.2
0.2
0.2
0.2
0.2
0.2
0.2
0.2
0.2
0.2
0.2
0.2
0.2
0.2
0.2
0.2
0.2
0.2
0.2
0.2
0.2
0.2
0.2
0.2
0.2
0.2
0.2
0.2
0.2
0.2
0.2
0.2
0.2
0.2
0.2
0.2
0.2
0.2
0.2
0.2
0.2
0.2
0.2
0.2
0.2
0.2
0.2
0.2
0.2
0.2
0.2
0.2
0.2
0.2
0.2
0.2
0.2
0.2
0.2
0.2
0.2
0.2
0.2
0.2
0.2
0.2
0.2
0.2
0.2
0.2
0.2
0.2
0.2
0.2
0.2
0.2
0.2
0.2
0.2
0.2
0.797798
0.784825
0.755911
0.721249
0.68795
0.658081
0.631816
0.60877
0.588427
0.570295