/*--------------------------------*- C++ -*----------------------------------*\
| =========                 |                                                 |
| \\      /  F ield         | OpenFOAM: The Open Source CFD Toolbox           |
|  \\    /   O peration     | Version:  2.1.0                                 |
|   \\  /    A nd           | Web:      www.OpenFOAM.org                      |
|    \\/     M anipulation  |                                                 |
\*---------------------------------------------------------------------------*/
FoamFile
{
    version     2.0;
    format      ascii;
    class       volScalarField;
    location    "20075";
    object      kr_w;
}
// * * * * * * * * * * * * * * * * * * * * * * * * * * * * * * * * * * * * * //

dimensions      [0 0 0 0 0 0 0];

internalField   nonuniform List<scalar> 
75000
(
0.38118
0.359038
0.33336
0.307446
0.282822
0.260049
0.239211
0.220194
0.202859
0.187072
0.172697
0.159594
0.147628
0.136675
0.126638
0.117416
0.108898
0.100982
0.0935788
0.0866037
0.07998
0.073636
0.0675049
0.0615264
0.0556464
0.049806
0.0439463
0.038021
0.0320237
0.0260381
0.0202671
0.0148264
0.00991734
0.00586225
0.00294207
0.00120795
0.000406475
0.000118575
3.17206e-05
8.01127e-06
1.93345e-06
4.48151e-07
9.99956e-08
2.15044e-08
4.46046e-09
8.92802e-10
1.72514e-10
3.21917e-11
5.80349e-12
1.01145e-12
1.70662e-13
2.79383e-14
4.41348e-15
5.42953e-16
0
0
0
0
0
0
0
0
0
0
0
0
0
0
0
0
0
0
0
0
0
0
0
0
0
0
0
0
0
0
0
0
0
0
0
0
0
0
0
0
0
0
0
0
0
0
0
0
0
0
0
0
0
0
0
0
0
0
0
0
0
0
0
0
0
0
0
0
0
0
0
0
0
0
0
0
0
0
0
0
0
0
0
0
0
0
0
0
0
0
0
0
0
0
0
0
0.35889
0.339828
0.317404
0.294356
0.272064
0.251121
0.231693
0.213772
0.197307
0.182219
0.168407
0.15576
0.144165
0.133516
0.123732
0.114715
0.10636
0.0985721
0.0912651
0.084358
0.0777755
0.0714471
0.0653074
0.0592984
0.0533642
0.047444
0.0414816
0.035443
0.0293544
0.023364
0.0177168
0.0125454
0.00807997
0.00458068
0.00219566
0.000861288
0.000280923
8.08117e-05
2.14979e-05
5.41363e-06
1.3036e-06
3.01514e-07
6.71278e-08
1.4402e-08
2.97969e-09
5.94766e-10
1.1458e-10
2.13117e-11
3.8287e-12
6.64857e-13
1.11759e-13
1.82667e-14
2.8386e-15
2.66714e-16
0
0
0
0
0
0
0
0
0
0
0
0
0
0
0
0
0
0
0
0
0
0
0
0
0
0
0
0
0
0
0
0
0
0
0
0
0
0
0
0
0
0
0
0
0
0
0
0
0
0
0
0
0
0
0
0
0
0
0
0
0
0
0
0
0
0
0
0
0
0
0
0
0
0
0
0
0
0
0
0
0
0
0
0
0
0
0
0
0
0
0
0
0
0
0
0
0.33298
0.317177
0.298266
0.278394
0.258759
0.239948
0.222206
0.205633
0.190255
0.176049
0.162954
0.150893
0.139777
0.129527
0.120077
0.111331
0.103197
0.0955855
0.0884163
0.0816127
0.0751025
0.0688178
0.0626965
0.0566835
0.0507207
0.044748
0.0387167
0.0326153
0.0265191
0.0206561
0.0152398
0.0104236
0.00643645
0.00346733
0.00156398
0.000578242
0.000181373
5.11585e-05
1.34731e-05
3.37165e-06
8.08025e-07
1.86108e-07
4.12692e-08
8.81904e-09
1.81717e-09
3.61174e-10
6.92661e-11
1.28218e-11
2.29189e-12
3.95902e-13
6.62593e-14
1.07225e-14
1.59711e-15
9.52549e-18
0
0
0
0
0
0
0
0
0
0
0
0
0
0
0
0
0
0
0
0
0
0
0
0
0
0
0
0
0
0
0
0
0
0
0
0
0
0
0
0
0
0
0
0
0
0
0
0
0
0
0
0
0
0
0
0
0
0
0
0
0
0
0
0
0
0
0
0
0
0
0
0
0
0
0
0
0
0
0
0
0
0
0
0
0
0
0
0
0
0
0
0
0
0
0
0
0.306765
0.293837
0.278105
0.261205
0.244134
0.227446
0.211447
0.19631
0.182116
0.168886
0.156596
0.145197
0.134631
0.124847
0.115784
0.107357
0.0994815
0.0920794
0.0850756
0.0783986
0.0719801
0.0657561
0.0596696
0.0536665
0.0476871
0.0416762
0.0356001
0.0294844
0.0234756
0.0178519
0.0127609
0.00838516
0.00492518
0.00249087
0.00104345
0.000361512
0.000108948
3.00772e-05
7.82245e-06
1.94096e-06
4.62065e-07
1.05813e-07
2.33391e-08
4.96161e-09
1.01701e-09
2.01047e-10
3.83393e-11
7.05469e-12
1.25322e-12
2.15111e-13
3.57746e-14
5.76292e-15
7.6839e-16
3.17516e-18
0
0
0
0
0
0
0
0
0
0
0
0
0
0
0
0
0
0
0
0
0
0
0
0
0
0
0
0
0
0
0
0
0
0
0
0
0
0
0
0
0
0
0
0
0
0
0
0
0
0
0
0
0
0
0
0
0
0
0
0
0
0
0
0
0
0
0
0
0
0
0
0
0
0
0
0
0
0
0
0
0
0
0
0
0
0
0
0
0
0
0
0
0
0
0
0
0.281788
0.271198
0.258126
0.243791
0.229003
0.214281
0.19996
0.186243
0.173244
0.161014
0.149559
0.138857
0.128879
0.1196
0.110955
0.102871
0.0952762
0.0881008
0.0812762
0.074736
0.0684169
0.0622605
0.056215
0.0502241
0.0442307
0.03819
0.0320967
0.0260361
0.0202473
0.014952
0.0102857
0.00643923
0.00355588
0.00166296
0.000640407
0.000208146
6.04602e-05
1.63476e-05
4.1961e-06
1.03136e-06
2.43681e-07
5.544e-08
1.2155e-08
2.569e-09
5.23507e-10
1.02865e-10
1.94919e-11
3.56263e-12
6.28438e-13
1.07194e-13
1.7746e-14
2.78462e-15
2.57188e-16
0
0
0
0
0
0
0
0
0
0
0
0
0
0
0
0
0
0
0
0
0
0
0
0
0
0
0
0
0
0
0
0
0
0
0
0
0
0
0
0
0
0
0
0
0
0
0
0
0
0
0
0
0
0
0
0
0
0
0
0
0
0
0
0
0
0
0
0
0
0
0
0
0
0
0
0
0
0
0
0
0
0
0
0
0
0
0
0
0
0
0
0
0
0
0
0
0
0.258621
0.249865
0.238924
0.226709
0.213886
0.200926
0.188151
0.175773
0.163922
0.152667
0.142037
0.132035
0.122664
0.113896
0.105675
0.0979409
0.0906318
0.0836854
0.0770396
0.0706339
0.0644109
0.0583198
0.0523093
0.0463234
0.0403127
0.034255
0.0281956
0.022309
0.0168698
0.0120019
0.00787274
0.00464035
0.00237011
0.00100855
0.000356016
0.000109364
3.07847e-05
8.17086e-06
2.07162e-06
5.04559e-07
1.18336e-07
2.67503e-08
5.83011e-09
1.22508e-09
2.48174e-10
4.84629e-11
9.12271e-12
1.65571e-12
2.89969e-13
4.91166e-14
8.06174e-15
1.18116e-15
3.17516e-18
0
0
0
0
0
0
0
0
0
0
0
0
0
0
0
0
0
0
0
0
0
0
0
0
0
0
0
0
0
0
0
0
0
0
0
0
0
0
0
0
0
0
0
0
0
0
0
0
0
0
0
0
0
0
0
0
0
0
0
0
0
0
0
0
0
0
0
0
0
0
0
0
0
0
0
0
0
0
0
0
0
0
0
0
0
0
0
0
0
0
0
0
0
0
0
0
0
0.237356
0.230009
0.220751
0.210273
0.19912
0.187702
0.176314
0.165159
0.154371
0.144034
0.134191
0.124874
0.116096
0.107825
0.100016
0.0926203
0.0855849
0.0788546
0.0723735
0.0660875
0.0599478
0.0539077
0.047915
0.0419199
0.0358925
0.0298549
0.0239363
0.0184034
0.0134102
0.00909567
0.00561881
0.00306577
0.0014189
0.000543568
0.000177334
5.20782e-05
1.42986e-05
3.73801e-06
9.38015e-07
2.2671e-07
5.28401e-08
1.18795e-08
2.57579e-09
5.38463e-10
1.0849e-10
2.10619e-11
3.93934e-12
7.1009e-13
1.23504e-13
2.08005e-14
3.35297e-15
3.74669e-16
0
0
0
0
0
0
0
0
0
0
0
0
0
0
0
0
0
0
0
0
0
0
0
0
0
0
0
0
0
0
0
0
0
0
0
0
0
0
0
0
0
0
0
0
0
0
0
0
0
0
0
0
0
0
0
0
0
0
0
0
0
0
0
0
0
0
0
0
0
0
0
0
0
0
0
0
0
0
0
0
0
0
0
0
0
0
0
0
0
0
0
0
0
0
0
0
0
0
0.217892
0.211639
0.203718
0.194664
0.184917
0.174825
0.16465
0.154583
0.144756
0.135257
0.126152
0.117489
0.109264
0.101455
0.0940287
0.0869439
0.080155
0.073613
0.0672688
0.061077
0.0549962
0.0489788
0.0429781
0.0369627
0.0309446
0.0250274
0.0194535
0.0144015
0.00999035
0.00637281
0.00364282
0.00179761
0.000740077
0.000256423
7.86928e-05
2.23714e-05
6.03268e-06
1.55992e-06
3.88592e-07
9.34195e-08
2.16808e-08
4.85589e-09
1.04898e-09
2.1842e-10
4.38122e-11
8.46216e-12
1.57351e-12
2.81834e-13
4.8707e-14
8.10937e-15
1.20339e-15
3.17516e-18
0
0
0
0
0
0
0
0
0
0
0
0
0
0
0
0
0
0
0
0
0
0
0
0
0
0
0
0
0
0
0
0
0
0
0
0
0
0
0
0
0
0
0
0
0
0
0
0
0
0
0
0
0
0
0
0
0
0
0
0
0
0
0
0
0
0
0
0
0
0
0
0
0
0
0
0
0
0
0
0
0
0
0
0
0
0
0
0
0
0
0
0
0
0
0
0
0
0
0.200111
0.194719
0.187868
0.179974
0.171396
0.162426
0.153295
0.144175
0.135195
0.126454
0.118033
0.109957
0.102229
0.0948331
0.0877438
0.0809264
0.074341
0.0679449
0.0616978
0.0555636
0.0495007
0.043467
0.0374351
0.031417
0.0255088
0.0199365
0.0148822
0.0104548
0.00679829
0.00400276
0.00206427
0.00089883
0.000328797
0.000105412
3.10624e-05
8.65002e-06
2.30698e-06
5.92844e-07
1.47146e-07
3.5294e-08
8.17764e-09
1.82883e-09
3.94378e-10
8.19299e-11
1.63836e-11
3.15186e-12
5.83258e-13
1.03949e-13
1.79238e-14
2.93385e-15
3.07991e-16
0
0
0
0
0
0
0
0
0
0
0
0
0
0
0
0
0
0
0
0
0
0
0
0
0
0
0
0
0
0
0
0
0
0
0
0
0
0
0
0
0
0
0
0
0
0
0
0
0
0
0
0
0
0
0
0
0
0
0
0
0
0
0
0
0
0
0
0
0
0
0
0
0
0
0
0
0
0
0
0
0
0
0
0
0
0
0
0
0
0
0
0
0
0
0
0
0
0
0
0.183896
0.179186
0.173189
0.166235
0.158616
0.15058
0.142327
0.134017
0.125779
0.117721
0.109895
0.102328
0.0950267
0.0879802
0.0811675
0.0745585
0.0681184
0.061813
0.0556122
0.04948
0.0433811
0.0372956
0.0312453
0.0253352
0.0197919
0.0147802
0.0104089
0.00681353
0.00406793
0.00215086
0.00097208
0.000371339
0.000124035
3.79227e-05
1.0927e-05
3.01159e-06
7.9967e-07
2.05228e-07
5.09568e-08
1.22372e-08
2.83951e-09
6.35808e-10
1.37196e-10
2.84943e-11
5.69026e-12
1.09194e-12
2.01382e-13
3.57619e-14
6.09949e-15
8.92221e-16
3.17516e-18
0
0
0
0
0
0
0
0
0
0
0
0
0
0
0
0
0
0
0
0
0
0
0
0
0
0
0
0
0
0
0
0
0
0
0
0
0
0
0
0
0
0
0
0
0
0
0
0
0
0
0
0
0
0
0
0
0
0
0
0
0
0
0
0
0
0
0
0
0
0
0
0
0
0
0
0
0
0
0
0
0
0
0
0
0
0
0
0
0
0
0
0
0
0
0
0
0
0
0
0.169126
0.164954
0.159635
0.153433
0.14659
0.139318
0.131795
0.124176
0.116585
0.109099
0.101769
0.0946224
0.0876655
0.0808909
0.0742793
0.0678041
0.0614384
0.0551576
0.0489313
0.0427314
0.03655
0.0304276
0.0244956
0.0189929
0.0140561
0.0098078
0.00637386
0.00379642
0.002019
0.000928769
0.000365647
0.000126756
4.02734e-05
1.20462e-05
3.44174e-06
9.46666e-07
2.51703e-07
6.48081e-08
1.61624e-08
3.90058e-09
9.09533e-10
2.04543e-10
4.42855e-11
9.21684e-12
1.84184e-12
3.53231e-13
6.50464e-14
1.15322e-14
1.8924e-15
1.30182e-16
0
0
0
0
0
0
0
0
0
0
0
0
0
0
0
0
0
0
0
0
0
0
0
0
0
0
0
0
0
0
0
0
0
0
0
0
0
0
0
0
0
0
0
0
0
0
0
0
0
0
0
0
0
0
0
0
0
0
0
0
0
0
0
0
0
0
0
0
0
0
0
0
0
0
0
0
0
0
0
0
0
0
0
0
0
0
0
0
0
0
0
0
0
0
0
0
0
0
0
0
0.155677
0.151928
0.147139
0.14153
0.135305
0.128651
0.121737
0.114694
0.107623
0.100595
0.0936558
0.0868304
0.0801246
0.0735299
0.0670288
0.0606012
0.054228
0.0478832
0.0415471
0.0352273
0.0289937
0.0230237
0.0175598
0.0127235
0.00866658
0.00549716
0.00320442
0.00167849
0.000770636
0.00030892
0.000110886
3.67443e-05
1.14716e-05
3.41495e-06
9.76593e-07
2.69632e-07
7.2097e-08
1.86971e-08
4.70187e-09
1.14488e-09
2.69304e-10
6.10418e-11
1.33019e-11
2.78172e-12
5.57622e-13
1.07162e-13
1.98162e-14
3.46093e-15
4.28647e-16
0
0
0
0
0
0
0
0
0
0
0
0
0
0
0
0
0
0
0
0
0
0
0
0
0
0
0
0
0
0
0
0
0
0
0
0
0
0
0
0
0
0
0
0
0
0
0
0
0
0
0
0
0
0
0
0
0
0
0
0
0
0
0
0
0
0
0
0
0
0
0
0
0
0
0
0
0
0
0
0
0
0
0
0
0
0
0
0
0
0
0
0
0
0
0
0
0
0
0
0
0
0.14343
0.140007
0.135628
0.13048
0.124746
0.118591
0.112155
0.105553
0.0988757
0.0921861
0.0855252
0.0789125
0.0723506
0.0658303
0.0593394
0.0528623
0.0463773
0.0398739
0.0333813
0.027012
0.0210064
0.0155722
0.0108751
0.00709368
0.00429511
0.0023904
0.00120302
0.000541046
0.000219078
8.15184e-05
2.83604e-05
9.32268e-06
2.91531e-06
8.72072e-07
2.50857e-07
6.97301e-08
1.88014e-08
4.92708e-09
1.25451e-09
3.09619e-10
7.38097e-11
1.69337e-11
3.72776e-12
7.85856e-13
1.58507e-13
3.06562e-14
5.67084e-15
8.92221e-16
3.17516e-18
0
0
0
0
0
0
0
0
0
0
0
0
0
0
0
0
0
0
0
0
0
0
0
0
0
0
0
0
0
0
0
0
0
0
0
0
0
0
0
0
0
0
0
0
0
0
0
0
0
0
0
0
0
0
0
0
0
0
0
0
0
0
0
0
0
0
0
0
0
0
0
0
0
0
0
0
0
0
0
0
0
0
0
0
0
0
0
0
0
0
0
0
0
0
0
0
0
0
0
0
0
0.13228
0.129107
0.125043
0.120251
0.114888
0.109096
0.103002
0.0967089
0.0902968
0.0838216
0.0773166
0.0707954
0.0642581
0.0576998
0.0511076
0.0444641
0.0377716
0.0310895
0.0245911
0.018557
0.0131801
0.00870372
0.00530922
0.00298205
0.00153452
0.000721313
0.000312689
0.000127239
4.91662e-05
1.8097e-05
6.3391e-06
2.10997e-06
6.67695e-07
2.0156e-07
5.83851e-08
1.63427e-08
4.44837e-09
1.18156e-09
3.06122e-10
7.70498e-11
1.87299e-11
4.37315e-12
9.76931e-13
2.08456e-13
4.24964e-14
8.31893e-15
1.4701e-15
6.35033e-17
0
0
0
0
0
0
0
0
0
0
0
0
0
0
0
0
0
0
0
0
0
0
0
0
0
0
0
0
0
0
0
0
0
0
0
0
0
0
0
0
0
0
0
0
0
0
0
0
0
0
0
0
0
0
0
0
0
0
0
0
0
0
0
0
0
0
0
0
0
0
0
0
0
0
0
0
0
0
0
0
0
0
0
0
0
0
0
0
0
0
0
0
0
0
0
0
0
0
0
0
0
0
0.12215
0.11916
0.11532
0.110772
0.105655
0.100097
0.0942121
0.0880935
0.0818127
0.0754177
0.0689343
0.0623734
0.0557377
0.0490166
0.0422001
0.0353092
0.0284481
0.0218691
0.0158312
0.0106028
0.00648569
0.00360417
0.001817
0.000834542
0.000356566
0.000146317
5.8945e-05
2.34509e-05
9.15313e-06
3.46082e-06
1.25138e-06
4.28201e-07
1.38113e-07
4.21238e-08
1.22575e-08
3.44455e-09
9.4579e-10
2.55482e-10
6.78408e-11
1.7577e-11
4.3964e-12
1.05241e-12
2.39985e-13
5.21425e-14
1.08114e-14
2.05751e-15
2.22261e-16
0
0
0
0
0
0
0
0
0
0
0
0
0
0
0
0
0
0
0
0
0
0
0
0
0
0
0
0
0
0
0
0
0
0
0
0
0
0
0
0
0
0
0
0
0
0
0
0
0
0
0
0
0
0
0
0
0
0
0
0
0
0
0
0
0
0
0
0
0
0
0
0
0
0
0
0
0
0
0
0
0
0
0
0
0
0
0
0
0
0
0
0
0
0
0
0
0
0
0
0
0
0
0
0.112938
0.110068
0.106365
0.101957
0.0969681
0.0915143
0.0857006
0.0796137
0.0733181
0.0668557
0.0602517
0.0535173
0.0466476
0.039645
0.0325611
0.0255655
0.0189607
0.0130109
0.00809223
0.00450135
0.00222642
0.000980286
0.000392
0.000148293
5.53417e-05
2.10373e-05
8.27499e-06
3.36534e-06
1.38543e-06
5.59668e-07
2.15839e-07
7.75619e-08
2.57341e-08
7.92325e-09
2.29924e-09
6.43025e-10
1.77345e-10
4.89185e-11
1.34729e-11
3.65061e-12
9.52921e-13
2.36343e-13
5.54638e-14
1.23609e-14
2.57188e-15
3.61969e-16
0
0
0
0
0
0
0
0
0
0
0
0
0
0
0
0
0
0
0
0
0
0
0
0
0
0
0
0
0
0
0
0
0
0
0
0
0
0
0
0
0
0
0
0
0
0
0
0
0
0
0
0
0
0
0
0
0
0
0
0
0
0
0
0
0
0
0
0
0
0
0
0
0
0
0
0
0
0
0
0
0
0
0
0
0
0
0
0
0
0
0
0
0
0
0
0
0
0
0
0
0
0
0
0
0.104546
0.101736
0.0980907
0.0937217
0.0887401
0.0832533
0.0773603
0.0711451
0.0646717
0.0579869
0.051115
0.0440646
0.0368609
0.0296039
0.0225489
0.0159859
0.010281
0.00586687
0.00293122
0.00127469
0.000486864
0.000168478
5.45653e-05
1.70078e-05
5.36205e-06
1.84015e-06
7.18789e-07
3.2007e-07
1.52671e-07
7.17552e-08
3.16538e-08
1.24482e-08
4.31496e-09
1.33597e-09
3.8008e-10
1.0351e-10
2.8292e-11
8.00865e-12
2.33758e-12
6.82593e-13
1.90421e-13
4.96913e-14
1.20815e-14
2.70524e-15
4.28647e-16
3.17516e-18
0
0
0
0
0
0
0
0
0
0
0
0
0
0
0
0
0
0
0
0
0
0
0
0
0
0
0
0
0
0
0
0
0
0
0
0
0
0
0
0
0
0
0
0
0
0
0
0
0
0
0
0
0
0
0
0
0
0
0
0
0
0
0
0
0
0
0
0
0
0
0
0
0
0
0
0
0
0
0
0
0
0
0
0
0
0
0
0
0
0
0
0
0
0
0
0
0
0
0
0
0
0
0
0
0.0968855
0.0940822
0.0904158
0.0859829
0.0808794
0.0752039
0.0690553
0.0625271
0.0556995
0.0486251
0.0413405
0.0339125
0.026515
0.0194612
0.0130639
0.00779879
0.00405353
0.00181249
0.000696448
0.000234227
7.06399e-05
1.91161e-05
4.78845e-06
1.22157e-06
3.2333e-07
9.21778e-08
2.9409e-08
1.61121e-08
1.117e-08
7.12079e-09
4.06191e-09
1.84538e-09
6.75203e-10
2.06425e-10
5.5227e-11
1.38345e-11
3.59004e-12
1.04613e-12
3.37412e-13
1.13226e-13
3.52189e-14
9.84301e-15
2.43853e-15
4.12771e-16
3.17516e-18
0
0
0
0
0
0
0
0
0
0
0
0
0
0
0
0
0
0
0
0
0
0
0
0
0
0
0
0
0
0
0
0
0
0
0
0
0
0
0
0
0
0
0
0
0
0
0
0
0
0
0
0
0
0
0
0
0
0
0
0
0
0
0
0
0
0
0
0
0
0
0
0
0
0
0
0
0
0
0
0
0
0
0
0
0
0
0
0
0
0
0
0
0
0
0
0
0
0
0
0
0
0
0
0
0
0.0898592
0.0869992
0.0832289
0.07863
0.07329
0.0673055
0.0606728
0.0535566
0.0461722
0.0385631
0.0308683
0.0233652
0.0163705
0.0103042
0.00566867
0.00267765
0.00107785
0.000372821
0.00011295
3.01873e-05
6.92678e-06
1.50449e-06
3.32816e-07
7.5519e-08
1.76713e-08
4.91626e-09
1.48111e-09
5.7113e-10
6.66628e-10
5.97072e-10
5.18884e-10
2.80414e-10
1.06391e-10
3.07209e-11
7.0978e-12
1.37341e-12
2.79122e-13
8.43958e-14
3.4133e-14
1.59869e-14
6.02011e-15
1.76539e-15
3.17516e-16
3.17516e-18
0
0
0
0
0
0
0
0
0
0
0
0
0
0
0
0
0
0
0
0
0
0
0
0
0
0
0
0
0
0
0
0
0
0
0
0
0
0
0
0
0
0
0
0
0
0
0
0
0
0
0
0
0
0
0
0
0
0
0
0
0
0
0
0
0
0
0
0
0
0
0
0
0
0
0
0
0
0
0
0
0
0
0
0
0
0
0
0
0
0
0
0
0
0
0
0
0
0
0
0
0
0
0
0
0
0
0.0833891
0.0804006
0.0764227
0.0715099
0.0657359
0.059205
0.0519863
0.0443162
0.0360442
0.0278029
0.0201827
0.0133465
0.0077997
0.00393583
0.00169411
0.000622263
0.000197912
5.51289e-05
1.33518e-05
2.69991e-06
4.95329e-07
9.23865e-08
1.78446e-08
3.54268e-09
7.51369e-10
9.73377e-11
4.99862e-12
1.02528e-12
1.35428e-11
2.30859e-11
9.00435e-11
5.03011e-11
1.83013e-11
4.64956e-12
8.01367e-13
1.09007e-13
1.38374e-14
9.39848e-16
1.17799e-15
1.93685e-15
8.69995e-16
1.46058e-16
0
0
0
0
0
0
0
0
0
0
0
0
0
0
0
0
0
0
0
0
0
0
0
0
0
0
0
0
0
0
0
0
0
0
0
0
0
0
0
0
0
0
0
0
0
0
0
0
0
0
0
0
0
0
0
0
0
0
0
0
0
0
0
0
0
0
0
0
0
0
0
0
0
0
0
0
0
0
0
0
0
0
0
0
0
0
0
0
0
0
0
0
0
0
0
0
0
0
0
0
0
0
0
0
0
0
0
0
0.0774126
0.0742251
0.0699248
0.0645151
0.0580516
0.0506846
0.0426359
0.0342281
0.0255847
0.0173344
0.0104665
0.00561982
0.00259547
0.00102564
0.000349514
0.000104003
2.70501e-05
6.05142e-06
1.11927e-06
1.70051e-07
2.5869e-08
4.01303e-09
7.13643e-10
9.98814e-11
4.78781e-12
2.97268e-13
3.31709e-14
3.73399e-15
4.40649e-14
8.07222e-14
5.7934e-13
8.50533e-12
3.13459e-12
6.99581e-13
7.57848e-14
2.4544e-15
0
0
0
0
3.17516e-18
0
0
0
0
0
0
0
0
0
0
0
0
0
0
0
0
0
0
0
0
0
0
0
0
0
0
0
0
0
0
0
0
0
0
0
0
0
0
0
0
0
0
0
0
0
0
0
0
0
0
0
0
0
0
0
0
0
0
0
0
0
0
0
0
0
0
0
0
0
0
0
0
0
0
0
0
0
0
0
0
0
0
0
0
0
0
0
0
0
0
0
0
0
0
0
0
0
0
0
0
0
0
0
0
0
0
0
0
0
0.0718733
0.0684237
0.0636776
0.057542
0.0500475
0.0415036
0.0324933
0.0236196
0.0153578
0.00847147
0.00392556
0.00161172
0.000590433
0.000189533
5.34866e-05
1.3157e-05
2.757e-06
4.71466e-07
6.02495e-08
7.51271e-09
9.00292e-10
1.1673e-10
5.76027e-12
4.83723e-13
5.00279e-14
1.94955e-15
3.17516e-18
0
3.17516e-18
3.17516e-18
1.36215e-15
4.11022e-13
4.45202e-13
1.0212e-13
9.25243e-15
3.17516e-18
0
0
0
0
0
0
0
0
0
0
0
0
0
0
0
0
0
0
0
0
0
0
0
0
0
0
0
0
0
0
0
0
0
0
0
0
0
0
0
0
0
0
0
0
0
0
0
0
0
0
0
0
0
0
0
0
0
0
0
0
0
0
0
0
0
0
0
0
0
0
0
0
0
0
0
0
0
0
0
0
0
0
0
0
0
0
0
0
0
0
0
0
0
0
0
0
0
0
0
0
0
0
0
0
0
0
0
0
0
0
0
0
0
0
0.0667223
0.0629724
0.0576698
0.0505356
0.0415933
0.0316204
0.0220299
0.0136407
0.00706905
0.0029502
0.0010341
0.000326997
9.73469e-05
2.63496e-05
6.21571e-06
1.24094e-06
1.99345e-07
2.33542e-08
2.19086e-09
2.393e-10
2.1234e-11
7.25846e-13
5.81595e-14
4.05151e-15
3.17516e-18
0
0
0
0
0
0
1.18434e-15
5.37968e-14
1.58853e-14
9.23973e-16
0
0
0
0
0
0
0
0
0
0
0
0
0
0
0
0
0
0
0
0
0
0
0
0
0
0
0
0
0
0
0
0
0
0
0
0
0
0
0
0
0
0
0
0
0
0
0
0
0
0
0
0
0
0
0
0
0
0
0
0
0
0
0
0
0
0
0
0
0
0
0
0
0
0
0
0
0
0
0
0
0
0
0
0
0
0
0
0
0
0
0
0
0
0
0
0
0
0
0
0
0
0
0
0
0
0
0
0
0
0
0
0
0
0
0
0.0619192
0.057891
0.0519995
0.0436475
0.0328955
0.0215688
0.0124955
0.00600931
0.00229291
0.00071221
0.000195919
5.05893e-05
1.21764e-05
2.76348e-06
5.36866e-07
8.3785e-08
9.48102e-09
5.7332e-10
3.85697e-11
1.1836e-12
1.96016e-13
1.17132e-14
3.11166e-16
0
0
0
0
0
0
0
0
0
3.27359e-15
2.59728e-15
0
0
0
0
0
0
0
0
0
0
0
0
0
0
0
0
0
0
0
0
0
0
0
0
0
0
0
0
0
0
0
0
0
0
0
0
0
0
0
0
0
0
0
0
0
0
0
0
0
0
0
0
0
0
0
0
0
0
0
0
0
0
0
0
0
0
0
0
0
0
0
0
0
0
0
0
0
0
0
0
0
0
0
0
0
0
0
0
0
0
0
0
0
0
0
0
0
0
0
0
0
0
0
0
0
0
0
0
0
0
0
0
0
0
0
0
0.0574241
0.0532388
0.0469624
0.0375639
0.0249736
0.0125265
0.00542549
0.00180428
0.000490384
0.000117862
2.68938e-05
5.87248e-06
1.17956e-06
2.14105e-07
3.33528e-08
3.87185e-09
2.92008e-10
9.8308e-12
4.22798e-13
2.17467e-14
2.16864e-15
0
0
0
0
0
0
0
0
0
0
0
0
3.96895e-16
0
0
0
0
0
0
0
0
0
0
0
0
0
0
0
0
0
0
0
0
0
0
0
0
0
0
0
0
0
0
0
0
0
0
0
0
0
0
0
0
0
0
0
0
0
0
0
0
0
0
0
0
0
0
0
0
0
0
0
0
0
0
0
0
0
0
0
0
0
0
0
0
0
0
0
0
0
0
0
0
0
0
0
0
0
0
0
0
0
0
0
0
0
0
0
0
0
0
0
0
0
0
0
0
0
0
0
0
0
0
0
0
0
0
0
0
0.0531557
0.0490227
0.0429317
0.0337068
0.0214384
0.00967159
0.00158338
0.000263797
5.70274e-05
1.15582e-05
2.44296e-06
4.84319e-07
8.50272e-08
1.27473e-08
1.42638e-09
1.10354e-10
7.02673e-12
2.17603e-13
6.83295e-15
3.17516e-18
0
0
0
0
0
0
0
0
0
0
0
0
0
3.17516e-18
0
0
0
0
0
0
0
0
0
0
0
0
0
0
0
0
0
0
0
0
0
0
0
0
0
0
0
0
0
0
0
0
0
0
0
0
0
0
0
0
0
0
0
0
0
0
0
0
0
0
0
0
0
0
0
0
0
0
0
0
0
0
0
0
0
0
0
0
0
0
0
0
0
0
0
0
0
0
0
0
0
0
0
0
0
0
0
0
0
0
0
0
0
0
0
0
0
0
0
0
0
0
0
0
0
0
0
0
0
0
0
0
0
0
0
0
0.048925
0.0449186
0.039225
0.0308315
0.0199169
0.00957333
0.00348154
1.52867e-05
1.42333e-06
2.82291e-07
1.21714e-07
2.6475e-08
4.54804e-09
6.11266e-10
5.23483e-11
2.16202e-12
1.72176e-13
4.65161e-15
0
0
0
0
0
0
0
0
0
0
0
0
0
0
0
0
0
0
0
0
0
0
0
0
0
0
0
0
0
0
0
0
0
0
0
0
0
0
0
0
0
0
0
0
0
0
0
0
0
0
0
0
0
0
0
0
0
0
0
0
0
0
0
0
0
0
0
0
0
0
0
0
0
0
0
0
0
0
0
0
0
0
0
0
0
0
0
0
0
0
0
0
0
0
0
0
0
0
0
0
0
0
0
0
0
0
0
0
0
0
0
0
0
0
0
0
0
0
0
0
0
0
0
0
0
0
0
0
0
0
0
0
0.0446051
0.0407642
0.0355304
0.0281197
0.0187331
0.00985786
0.00439622
0.00246878
4.74534e-08
1.64805e-08
4.95972e-09
9.2497e-10
1.44035e-10
1.80725e-11
1.66588e-12
5.43779e-14
3.28629e-15
0
0
0
0
0
0
0
0
0
0
0
0
0
0
0
0
0
0
0
0
0
0
0
0
0
0
0
0
0
0
0
0
0
0
0
0
0
0
0
0
0
0
0
0
0
0
0
0
0
0
0
0
0
0
0
0
0
0
0
0
0
0
0
0
0
0
0
0
0
0
0
0
0
0
0
0
0
0
0
0
0
0
0
0
0
0
0
0
0
0
0
0
0
0
0
0
0
0
0
0
0
0
0
0
0
0
0
0
0
0
0
0
0
0
0
0
0
0
0
0
0
0
0
0
0
0
0
0
0
0
0
0
0
0.0400691
0.0364
0.0316206
0.0251776
0.0172578
0.00975814
0.00483943
0.00251917
0.00116077
1.91151e-05
1.64931e-10
2.94157e-11
4.22564e-12
4.59151e-13
3.97943e-14
9.04922e-16
0
0
0
0
0
0
0
0
0
0
0
0
0
0
0
0
0
0
0
0
0
0
0
0
0
0
0
0
0
0
0
0
0
0
0
0
0
0
0
0
0
0
0
0
0
0
0
0
0
0
0
0
0
0
0
0
0
0
0
0
0
0
0
0
0
0
0
0
0
0
0
0
0
0
0
0
0
0
0
0
0
0
0
0
0
0
0
0
0
0
0
0
0
0
0
0
0
0
0
0
0
0
0
0
0
0
0
0
0
0
0
0
0
0
0
0
0
0
0
0
0
0
0
0
0
0
0
0
0
0
0
0
0
0
0.0352021
0.0316952
0.0273381
0.0217852
0.0151693
0.00891877
0.00461154
0.00229058
0.00103667
0.000391336
7.02603e-05
1.71278e-06
6.18482e-09
9.10954e-15
3.30217e-16
0
0
0
0
0
0
0
0
0
0
0
0
0
0
0
0
0
0
0
0
0
0
0
0
0
0
0
0
0
0
0
0
0
0
0
0
0
0
0
0
0
0
0
0
0
0
0
0
0
0
0
0
0
0
0
0
0
0
0
0
0
0
0
0
0
0
0
0
0
0
0
0
0
0
0
0
0
0
0
0
0
0
0
0
0
0
0
0
0
0
0
0
0
0
0
0
0
0
0
0
0
0
0
0
0
0
0
0
0
0
0
0
0
0
0
0
0
0
0
0
0
0
0
0
0
0
0
0
0
0
0
0
0
0
0
0.0299368
0.0265959
0.0226589
0.0179207
0.0124327
0.00734883
0.00378643
0.00177597
0.000745214
0.000272316
7.95321e-05
1.99594e-05
3.56431e-06
3.68113e-07
1.55702e-08
2.52919e-10
2.48056e-12
1.9124e-14
0
0
0
0
0
0
0
0
0
0
0
0
0
0
0
0
0
0
0
0
0
0
0
0
0
0
0
0
0
0
0
0
0
0
0
0
0
0
0
0
0
0
0
0
0
0
0
0
0
0
0
0
0
0
0
0
0
0
0
0
0
0
0
0
0
0
0
0
0
0
0
0
0
0
0
0
0
0
0
0
0
0
0
0
0
0
0
0
0
0
0
0
0
0
0
0
0
0
0
0
0
0
0
0
0
0
0
0
0
0
0
0
0
0
0
0
0
0
0
0
0
0
0
0
0
0
0
0
0
0
0
0
0.0243374
0.0212296
0.0177552
0.0137294
0.00929228
0.00535644
0.00264579
0.00113643
0.000425247
0.000140505
3.99364e-05
9.56446e-06
1.77103e-06
2.14067e-07
4.53356e-09
4.73643e-12
5.08344e-14
2.8894e-16
0
0
0
0
0
0
0
0
0
0
0
0
0
0
0
0
0
0
0
0
0
0
0
0
0
0
0
0
0
0
0
0
0
0
0
0
0
0
0
0
0
0
0
0
0
0
0
0
0
0
0
0
0
0
0
0
0
0
0
0
0
0
0
0
0
0
0
0
0
0
0
0
0
0
0
0
0
0
0
0
0
0
0
0
0
0
0
0
0
0
0
0
0
0
0
0
0
0
0
0
0
0
0
0
0
0
0
0
0
0
0
0
0
0
0
0
0
0
0
0
0
0
0
0
0
0
0
0
0
0
0
0
0.0186454
0.0158447
0.0128509
0.00955771
0.00618118
0.00336971
0.00152942
0.000582147
0.000193358
5.84224e-05
1.58636e-05
3.76232e-06
7.40631e-07
1.05392e-07
3.32122e-09
8.69827e-12
1.25101e-14
0
0
0
0
0
0
0
0
0
0
0
0
0
0
0
0
0
0
0
0
0
0
0
0
0
0
0
0
0
0
0
0
0
0
0
0
0
0
0
0
0
0
0
0
0
0
0
0
0
0
0
0
0
0
0
0
0
0
0
0
0
0
0
0
0
0
0
0
0
0
0
0
0
0
0
0
0
0
0
0
0
0
0
0
0
0
0
0
0
0
0
0
0
0
0
0
0
0
0
0
0
0
0
0
0
0
0
0
0
0
0
0
0
0
0
0
0
0
0
0
0
0
0
0
0
0
0
0
0
0
0
0
0
0.0130858
0.0107293
0.00833009
0.00585895
0.00353225
0.0017512
0.00070139
0.000235983
7.17628e-05
2.04602e-05
5.41154e-06
1.30751e-06
2.87954e-07
5.822e-08
1.18816e-08
2.22823e-09
2.74164e-10
2.42631e-11
1.78342e-12
1.16151e-13
7.26795e-15
2.34962e-16
0
0
0
0
0
0
0
0
0
0
0
0
0
0
0
0
0
0
0
0
0
0
0
0
0
0
0
0
0
0
0
0
0
0
0
0
0
0
0
0
0
0
0
0
0
0
0
0
0
0
0
0
0
0
0
0
0
0
0
0
0
0
0
0
0
0
0
0
0
0
0
0
0
0
0
0
0
0
0
0
0
0
0
0
0
0
0
0
0
0
0
0
0
0
0
0
0
0
0
0
0
0
0
0
0
0
0
0
0
0
0
0
0
0
0
0
0
0
0
0
0
0
0
0
0
0
0
0
0.00808469
0.00633968
0.00464431
0.00302203
0.00164182
0.000713838
0.00025198
7.78835e-05
2.2484e-05
6.18604e-06
1.60748e-06
3.91656e-07
9.02519e-08
1.99805e-08
4.20216e-09
8.19252e-10
1.42425e-10
2.21845e-11
3.12702e-12
4.07358e-13
4.7818e-14
4.79132e-15
2.22261e-16
0
0
0
0
0
0
0
0
0
0
0
0
0
0
0
0
0
0
0
0
0
0
0
0
0
0
0
0
0
0
0
0
0
0
0
0
0
0
0
0
0
0
0
0
0
0
0
0
0
0
0
0
0
0
0
0
0
0
0
0
0
0
0
0
0
0
0
0
0
0
0
0
0
0
0
0
0
0
0
0
0
0
0
0
0
0
0
0
0
0
0
0
0
0
0
0
0
0
0
0
0
0
0
0
0
0
0
0
0
0
0
0
0
0
0
0
0
0
0
0
0
0
0
0
0
0
0
0.00418649
0.0031126
0.00211275
0.00123911
0.000592568
0.000227899
7.40997e-05
2.18652e-05
6.11595e-06
1.63938e-06
4.18042e-07
1.00945e-07
2.32307e-08
5.12326e-09
1.05394e-09
1.99801e-10
3.41907e-11
5.27061e-12
7.38651e-13
9.52708e-14
1.14465e-14
1.16846e-15
3.17516e-18
0
0
0
0
0
0
0
0
0
0
0
0
0
0
0
0
0
0
0
0
0
0
0
0
0
0
0
0
0
0
0
0
0
0
0
0
0
0
0
0
0
0
0
0
0
0
0
0
0
0
0
0
0
0
0
0
0
0
0
0
0
0
0
0
0
0
0
0
0
0
0
0
0
0
0
0
0
0
0
0
0
0
0
0
0
0
0
0
0
0
0
0
0
0
0
0
0
0
0
0
0
0
0
0
0
0
0
0
0
0
0
0
0
0
0
0
0
0
0
0
0
0
0
0
0
0
0
0.0017281
0.00120921
0.0007516
0.000395833
0.000170252
6.05691e-05
1.8812e-05
5.39273e-06
1.47165e-06
3.8468e-07
9.56787e-08
2.25461e-08
5.0461e-09
1.07175e-09
2.1121e-10
3.81661e-11
6.2507e-12
9.28954e-13
1.26822e-13
1.62314e-14
1.87017e-15
3.17516e-18
0
0
0
0
0
0
0
0
0
0
0
0
0
0
0
0
0
0
0
0
0
0
0
0
0
0
0
0
0
0
0
0
0
0
0
0
0
0
0
0
0
0
0
0
0
0
0
0
0
0
0
0
0
0
0
0
0
0
0
0
0
0
0
0
0
0
0
0
0
0
0
0
0
0
0
0
0
0
0
0
0
0
0
0
0
0
0
0
0
0
0
0
0
0
0
0
0
0
0
0
0
0
0
0
0
0
0
0
0
0
0
0
0
0
0
0
0
0
0
0
0
0
0
0
0
0
0
0
0.000559429
0.000371107
0.000214379
0.000104264
4.18276e-05
1.41643e-05
4.25993e-06
1.19114e-06
3.16893e-07
8.04381e-08
1.93523e-08
4.39289e-09
9.40707e-10
1.89404e-10
3.52713e-11
6.01113e-12
9.31914e-13
1.32115e-13
1.74062e-14
2.05116e-15
3.17516e-18
0
0
0
0
0
0
0
0
0
0
0
0
0
0
0
0
0
0
0
0
0
0
0
0
0
0
0
0
0
0
0
0
0
0
0
0
0
0
0
0
0
0
0
0
0
0
0
0
0
0
0
0
0
0
0
0
0
0
0
0
0
0
0
0
0
0
0
0
0
0
0
0
0
0
0
0
0
0
0
0
0
0
0
0
0
0
0
0
0
0
0
0
0
0
0
0
0
0
0
0
0
0
0
0
0
0
0
0
0
0
0
0
0
0
0
0
0
0
0
0
0
0
0
0
0
0
0
0
0
0.000150215
9.61572e-05
5.27814e-05
2.42429e-05
9.22992e-06
3.00203e-06
8.75765e-07
2.38206e-07
6.14469e-08
1.50323e-08
3.46457e-09
7.48876e-10
1.51601e-10
2.86295e-11
4.98461e-12
7.93559e-13
1.15303e-13
1.54218e-14
1.80032e-15
3.17516e-18
0
0
0
0
0
0
0
0
0
0
0
0
0
0
0
0
0
0
0
0
0
0
0
0
0
0
0
0
0
0
0
0
0
0
0
0
0
0
0
0
0
0
0
0
0
0
0
0
0
0
0
0
0
0
0
0
0
0
0
0
0
0
0
0
0
0
0
0
0
0
0
0
0
0
0
0
0
0
0
0
0
0
0
0
0
0
0
0
0
0
0
0
0
0
0
0
0
0
0
0
0
0
0
0
0
0
0
0
0
0
0
0
0
0
0
0
0
0
0
0
0
0
0
0
0
0
0
0
0
0
3.60374e-05
2.2467e-05
1.18317e-05
5.17078e-06
1.87563e-06
5.85716e-07
1.65028e-07
4.33524e-08
1.07461e-08
2.50842e-09
5.4793e-10
1.11544e-10
2.11223e-11
3.70627e-12
5.97385e-13
8.8006e-14
1.18116e-14
1.33357e-15
3.17516e-18
0
0
0
0
0
0
0
0
0
0
0
0
0
0
0
0
0
0
0
0
0
0
0
0
0
0
0
0
0
0
0
0
0
0
0
0
0
0
0
0
0
0
0
0
0
0
0
0
0
0
0
0
0
0
0
0
0
0
0
0
0
0
0
0
0
0
0
0
0
0
0
0
0
0
0
0
0
0
0
0
0
0
0
0
0
0
0
0
0
0
0
0
0
0
0
0
0
0
0
0
0
0
0
0
0
0
0
0
0
0
0
0
0
0
0
0
0
0
0
0
0
0
0
0
0
0
0
0
0
0
0
8.07652e-06
4.91294e-06
2.48566e-06
1.03331e-06
3.56107e-07
1.06135e-07
2.86199e-08
7.17961e-09
1.68943e-09
3.71796e-10
7.60949e-11
1.44319e-11
2.5308e-12
4.08831e-13
6.04678e-14
8.11889e-15
8.22367e-16
3.17516e-18
0
0
0
0
0
0
0
0
0
0
0
0
0
0
0
0
0
0
0
0
0
0
0
0
0
0
0
0
0
0
0
0
0
0
0
0
0
0
0
0
0
0
0
0
0
0
0
0
0
0
0
0
0
0
0
0
0
0
0
0
0
0
0
0
0
0
0
0
0
0
0
0
0
0
0
0
0
0
0
0
0
0
0
0
0
0
0
0
0
0
0
0
0
0
0
0
0
0
0
0
0
0
0
0
0
0
0
0
0
0
0
0
0
0
0
0
0
0
0
0
0
0
0
0
0
0
0
0
0
0
0
0
1.73235e-06
1.02778e-06
4.99339e-07
1.97255e-07
6.4368e-08
1.81479e-08
4.59815e-09
1.07532e-09
2.36596e-10
4.84387e-11
9.18112e-12
1.60534e-12
2.58331e-13
3.80924e-14
5.05486e-15
4.12771e-16
0
0
0
0
0
0
0
0
0
0
0
0
0
0
0
0
0
0
0
0
0
0
0
0
0
0
0
0
0
0
0
0
0
0
0
0
0
0
0
0
0
0
0
0
0
0
0
0
0
0
0
0
0
0
0
0
0
0
0
0
0
0
0
0
0
0
0
0
0
0
0
0
0
0
0
0
0
0
0
0
0
0
0
0
0
0
0
0
0
0
0
0
0
0
0
0
0
0
0
0
0
0
0
0
0
0
0
0
0
0
0
0
0
0
0
0
0
0
0
0
0
0
0
0
0
0
0
0
0
0
0
0
0
0
3.62063e-07
2.09319e-07
9.75562e-08
3.6561e-08
1.12518e-08
2.97586e-09
7.00748e-10
1.5011e-10
2.98521e-11
5.45503e-12
9.47256e-13
1.51404e-13
2.21785e-14
2.8513e-15
1.17481e-16
0
0
0
0
0
0
0
0
0
0
0
0
0
0
0
0
0
0
0
0
0
0
0
0
0
0
0
0
0
0
0
0
0
0
0
0
0
0
0
0
0
0
0
0
0
0
0
0
0
0
0
0
0
0
0
0
0
0
0
0
0
0
0
0
0
0
0
0
0
0
0
0
0
0
0
0
0
0
0
0
0
0
0
0
0
0
0
0
0
0
0
0
0
0
0
0
0
0
0
0
0
0
0
0
0
0
0
0
0
0
0
0
0
0
0
0
0
0
0
0
0
0
0
0
0
0
0
0
0
0
0
0
0
0
0
7.49399e-08
4.21963e-08
1.88475e-08
6.68008e-09
1.92254e-09
4.69459e-10
1.00618e-10
1.93354e-11
3.41859e-12
5.50142e-13
8.30559e-14
1.18942e-14
1.43517e-15
3.17516e-18
0
0
0
0
0
0
0
0
0
0
0
0
0
0
0
0
0
0
0
0
0
0
0
0
0
0
0
0
0
0
0
0
0
0
0
0
0
0
0
0
0
0
0
0
0
0
0
0
0
0
0
0
0
0
0
0
0
0
0
0
0
0
0
0
0
0
0
0
0
0
0
0
0
0
0
0
0
0
0
0
0
0
0
0
0
0
0
0
0
0
0
0
0
0
0
0
0
0
0
0
0
0
0
0
0
0
0
0
0
0
0
0
0
0
0
0
0
0
0
0
0
0
0
0
0
0
0
0
0
0
0
0
0
0
0
0
1.55903e-08
8.55674e-09
3.66474e-09
1.22398e-09
3.24915e-10
7.12794e-11
1.34521e-11
2.25088e-12
3.46293e-13
4.84879e-14
6.29952e-15
5.93756e-16
0
0
0
0
0
0
0
0
0
0
0
0
0
0
0
0
0
0
0
0
0
0
0
0
0
0
0
0
0
0
0
0
0
0
0
0
0
0
0
0
0
0
0
0
0
0
0
0
0
0
0
0
0
0
0
0
0
0
0
0
0
0
0
0
0
0
0
0
0
0
0
0
0
0
0
0
0
0
0
0
0
0
0
0
0
0
0
0
0
0
0
0
0
0
0
0
0
0
0
0
0
0
0
0
0
0
0
0
0
0
0
0
0
0
0
0
0
0
0
0
0
0
0
0
0
0
0
0
0
0
0
0
0
0
0
0
0
0
3.30077e-09
1.77239e-09
7.31263e-10
2.29876e-10
5.51918e-11
1.03643e-11
1.62987e-12
2.27145e-13
2.97227e-14
3.50221e-15
1.84159e-16
0
0
0
0
0
0
0
0
0
0
0
0
0
0
0
0
0
0
0
0
0
0
0
0
0
0
0
0
0
0
0
0
0
0
0
0
0
0
0
0
0
0
0
0
0
0
0
0
0
0
0
0
0
0
0
0
0
0
0
0
0
0
0
0
0
0
0
0
0
0
0
0
0
0
0
0
0
0
0
0
0
0
0
0
0
0
0
0
0
0
0
0
0
0
0
0
0
0
0
0
0
0
0
0
0
0
0
0
0
0
0
0
0
0
0
0
0
0
0
0
0
0
0
0
0
0
0
0
0
0
0
0
0
0
0
0
0
0
0
7.16967e-10
3.79908e-10
1.53049e-10
4.56661e-11
9.68403e-12
1.414e-12
1.67283e-13
1.80286e-14
1.86382e-15
3.17516e-18
0
0
0
0
0
0
0
0
0
0
0
0
0
0
0
0
0
0
0
0
0
0
0
0
0
0
0
0
0
0
0
0
0
0
0
0
0
0
0
0
0
0
0
0
0
0
0
0
0
0
0
0
0
0
0
0
0
0
0
0
0
0
0
0
0
0
0
0
0
0
0
0
0
0
0
0
0
0
0
0
0
0
0
0
0
0
0
0
0
0
0
0
0
0
0
0
0
0
0
0
0
0
0
0
0
0
0
0
0
0
0
0
0
0
0
0
0
0
0
0
0
0
0
0
0
0
0
0
0
0
0
0
0
0
0
0
0
0
0
0
1.59879e-10
8.4882e-11
3.43689e-11
1.00848e-11
1.84781e-12
1.6689e-13
1.17767e-14
6.47733e-16
0
0
0
0
0
0
0
0
0
0
0
0
0
0
0
0
0
0
0
0
0
0
0
0
0
0
0
0
0
0
0
0
0
0
0
0
0
0
0
0
0
0
0
0
0
0
0
0
0
0
0
0
0
0
0
0
0
0
0
0
0
0
0
0
0
0
0
0
0
0
0
0
0
0
0
0
0
0
0
0
0
0
0
0
0
0
0
0
0
0
0
0
0
0
0
0
0
0
0
0
0
0
0
0
0
0
0
0
0
0
0
0
0
0
0
0
0
0
0
0
0
0
0
0
0
0
0
0
0
0
0
0
0
0
0
0
0
0
0
0
0
0
3.62266e-11
1.96411e-11
8.37616e-12
2.7192e-12
6.01662e-13
1.24466e-14
0
0
0
0
0
0
0
0
0
0
0
0
0
0
0
0
0
0
0
0
0
0
0
0
0
0
0
0
0
0
0
0
0
0
0
0
0
0
0
0
0
0
0
0
0
0
0
0
0
0
0
0
0
0
0
0
0
0
0
0
0
0
0
0
0
0
0
0
0
0
0
0
0
0
0
0
0
0
0
0
0
0
0
0
0
0
0
0
0
0
0
0
0
0
0
0
0
0
0
0
0
0
0
0
0
0
0
0
0
0
0
0
0
0
0
0
0
0
0
0
0
0
0
0
0
0
0
0
0
0
0
0
0
0
0
0
0
0
0
0
0
0
0
0
8.13448e-12
4.54305e-12
2.07747e-12
7.72384e-13
2.24132e-13
3.67208e-14
0
0
0
0
0
0
0
0
0
0
0
0
0
0
0
0
0
0
0
0
0
0
0
0
0
0
0
0
0
0
0
0
0
0
0
0
0
0
0
0
0
0
0
0
0
0
0
0
0
0
0
0
0
0
0
0
0
0
0
0
0
0
0
0
0
0
0
0
0
0
0
0
0
0
0
0
0
0
0
0
0
0
0
0
0
0
0
0
0
0
0
0
0
0
0
0
0
0
0
0
0
0
0
0
0
0
0
0
0
0
0
0
0
0
0
0
0
0
0
0
0
0
0
0
0
0
0
0
0
0
0
0
0
0
0
0
0
0
0
0
0
0
0
0
1.76527e-12
1.01292e-12
4.9042e-13
2.00223e-13
6.66308e-14
1.46248e-14
2.27977e-15
0
0
0
0
0
0
0
0
0
0
0
0
0
0
0
0
0
0
0
0
0
0
0
0
0
0
0
0
0
0
0
0
0
0
0
0
0
0
0
0
0
0
0
0
0
0
0
0
0
0
0
0
0
0
0
0
0
0
0
0
0
0
0
0
0
0
0
0
0
0
0
0
0
0
0
0
0
0
0
0
0
0
0
0
0
0
0
0
0
0
0
0
0
0
0
0
0
0
0
0
0
0
0
0
0
0
0
0
0