/*--------------------------------*- C++ -*----------------------------------*\
| =========                 |                                                 |
| \\      /  F ield         | OpenFOAM: The Open Source CFD Toolbox           |
|  \\    /   O peration     | Version:  2.1.0                                 |
|   \\  /    A nd           | Web:      www.OpenFOAM.org                      |
|    \\/     M anipulation  |                                                 |
\*---------------------------------------------------------------------------*/
FoamFile
{
    version     2.0;
    format      ascii;
    class       surfaceScalarField;
    location    "20075";
    object      phi_o;
}
// * * * * * * * * * * * * * * * * * * * * * * * * * * * * * * * * * * * * * //

dimensions      [1 -2 -2 0 0 0 0];

internalField   nonuniform List<scalar> 
208750
(
0.54354
0.536948
-0.8572
0.916358
0.479714
-0.654839
1.11996
0.402084
-0.434578
1.21127
0.32842
-0.270002
1.24102
0.267219
-0.163614
1.24168
0.218983
-0.098891
1.23138
0.181571
-0.0602557
1.21948
0.152523
-0.0370892
1.21037
0.129727
-0.0230115
1.20586
0.111561
-0.0143221
1.20654
0.0968417
-0.00883165
1.21236
0.0847228
-0.00523562
1.22305
0.0746034
-0.00277188
1.23822
0.0660572
-0.00101008
1.25739
0.0587742
0.000300311
1.28018
0.0525368
0.00140515
1.30624
0.0471922
0.00243551
1.33522
0.0426339
0.00347819
1.36681
0.0387865
0.00459768
1.40074
0.0355977
0.0058448
1.43678
0.0330333
0.0072576
1.47474
0.0310726
0.00885749
1.51448
0.0297077
0.0106381
1.55594
0.028938
0.0125465
1.5991
0.0287597
0.0144794
1.6442
0.0292147
0.016264
1.69175
0.0304059
0.0174983
1.74245
0.0325025
0.0173372
1.79699
0.0357134
0.0142306
1.85524
0.0401291
0.00589348
1.91775
0.0453538
-0.00926501
1.98559
0.0514364
-0.0316695
2.05592
0.0574451
-0.0624264
2.1222
0.0619809
-0.0980072
2.17587
0.0642831
-0.124746
2.2077
0.0643741
-0.120797
2.21039
0.0619423
-0.0825237
2.18797
0.0574709
-0.04217
2.15189
0.0528067
-0.0188828
2.11059
0.0488806
-0.0081458
2.06821
0.0457632
-0.00352475
2.02646
0.0432771
-0.00156132
1.98593
0.0412359
-0.000715991
1.94678
0.0394905
-0.000342994
1.90902
0.0379286
-0.000168404
1.87263
0.0364671
-8.56444e-05
1.83763
0.0350474
-4.43504e-05
1.80403
0.0336285
-2.36058e-05
1.77186
0.0321847
-1.23564e-05
1.74116
0.0307045
-6.52698e-06
1.71197
0.0291864
-3.48357e-06
1.68434
0.027633
-1.26148e-06
1.65828
0.0260545
-8.18975e-07
1.63382
0.0244667
-2.96628e-07
1.61093
0.0228864
9.45529e-08
1.5896
0.0213317
8.03448e-09
1.56978
0.0198227
1.91815e-07
1.5514
0.0183783
-3.12843e-07
1.53438
0.0170184
-2.37679e-07
1.51862
0.0157585
8.21328e-08
1.50401
0.0146111
-5.30658e-07
1.49042
0.0135884
-6.1113e-07
1.47772
0.0126974
-8.4907e-07
1.46578
0.011942
-5.45743e-07
1.45446
0.0113205
7.80665e-08
1.44364
0.0108265
2.88416e-07
1.43319
0.0104492
-6.39529e-08
1.42301
0.0101747
-4.92523e-07
1.41302
0.00998728
-1.60048e-07
1.40316
0.00986834
5.50499e-07
1.39336
0.0097981
5.87096e-07
1.3836
0.00975962
3.00606e-07
1.37386
0.00973819
1.79662e-07
1.36414
0.00972108
-2.85781e-08
1.35444
0.00969906
-1.07249e-07
1.34478
0.00966564
1.81916e-07
1.33516
0.00961579
4.49067e-07
1.32561
0.00954563
2.80261e-07
1.31616
0.00945233
2.45752e-07
1.30683
0.00933264
6.7569e-07
1.29765
0.00918206
7.5773e-07
1.28865
0.00899625
4.19135e-07
1.27988
0.00877121
3.36773e-07
1.27137
0.00850302
5.91638e-07
1.26319
0.00818789
6.3783e-07
1.25536
0.00782273
1.79029e-07
1.24796
0.00740629
-8.11406e-08
1.24102
0.00693808
9.28185e-08
1.2346
0.00641741
-4.72655e-08
1.22875
0.00584477
-2.73565e-07
1.22353
0.00522054
-1.38718e-07
1.21899
0.0045433
-2.59894e-07
1.21518
0.00381119
-6.04146e-07
1.21215
0.00302151
-5.07049e-07
1.20999
0.00216883
-1.91977e-07
1.20874
0.00124547
4.64297e-08
1.2085
0.00024164
2.93322e-07
1.20936
-0.000855575
2.41412e-07
1.21142
-0.002062
-1.75729e-07
1.21481
-0.0033963
-3.85753e-07
1.2197
-0.00488114
-1.51696e-07
1.22624
-0.00654344
2.55654e-07
1.23466
-0.00841395
5.33671e-07
1.24518
-0.0105272
4.36587e-07
1.2581
-0.0129212
4.05107e-08
1.27374
-0.0156364
-2.24592e-07
1.29245
-0.0187143
-1.63241e-07
1.31465
-0.0221954
1.28366e-08
1.34076
-0.0261133
5.78384e-08
1.37125
-0.0304883
-9.25238e-08
1.40657
-0.0353174
-2.79943e-07
1.44713
-0.0405613
-2.54527e-07
1.49326
-0.0461289
1.70876e-08
1.54512
-0.0518611
3.18056e-07
1.60264
-0.0575198
4.47228e-07
1.66543
-0.0627922
3.44729e-07
1.73276
-0.0673264
7.43048e-08
1.80357
-0.0708156
-1.62806e-07
1.87671
-0.0731369
-1.2796e-07
1.95123
-0.074521
1.76686e-07
2.02691
-0.0756748
3.99699e-07
2.10465
-0.0777477
2.23481e-07
2.18674
-0.0820859
-1.62598e-07
2.27658
-0.0898455
-2.90719e-07
2.37812
-0.101534
-1.10736e-07
2.49457
-0.116455
-3.67345e-09
2.62659
-0.132014
-1.08474e-07
2.76962
-0.143032
-1.85776e-07
2.91143
-0.141804
-1.34864e-07
3.03213
-0.120697
-9.0693e-08
3.11138
-0.0792559
-6.47751e-08
3.14234
-0.0309608
2.8359e-08
3.12936
0.012984
1.08128e-07
3.08022
0.0491357
6.5058e-08
3.00316
0.07706
-1.08621e-08
2.90464
0.098523
1.8048e-08
2.78806
0.116577
1.45392e-07
2.65298
0.135084
2.81918e-07
2.49667
0.156314
3.32843e-07
2.31677
0.179895
2.49024e-07
2.11336
0.203406
1.43305e-07
1.88999
0.22337
2.00309e-07
1.65292
0.237074
3.668e-07
1.40912
0.243801
3.84901e-07
1.16446
0.24466
2.11386e-07
0.922802
0.241657
9.19008e-08
0.685948
0.236854
1.48479e-07
0.454018
0.231929
2.19448e-07
0.225958
0.228059
1.75322e-07
0.225958
9.16061e-08
0.486306
0.903144
-0.654864
0.838728
0.825495
-0.51996
1.0463
0.711889
-0.359436
1.15007
0.596657
-0.231109
1.19278
0.495703
-0.143874
1.20427
0.41282
-0.0887517
1.20234
0.34653
-0.0548732
1.19669
0.293821
-0.0341193
1.1922
0.251672
-0.0213194
1.19114
0.217584
-0.0133245
1.19442
0.189641
-0.00820912
1.20224
0.166424
-0.0048146
1.21451
0.146899
-0.00246029
1.23093
0.130322
-0.000761027
1.25115
0.116135
0.00052581
1.27484
0.103953
0.00163439
1.30168
0.0935038
0.00268623
1.33137
0.0845964
0.00376499
1.36362
0.0770961
0.00493449
1.39818
0.0709131
0.00624535
1.43482
0.0659905
0.00773435
1.47338
0.0622955
0.0094202
1.51371
0.0598156
0.0112875
1.55576
0.0585438
0.013272
1.59955
0.0584852
0.0152654
1.64539
0.0597223
0.0170527
1.69385
0.0624174
0.0181296
1.74566
0.0667947
0.0174594
1.8014
0.0730318
0.0132057
1.86047
0.0808967
0.00289434
1.92383
0.0898804
-0.0143689
1.9916
0.0999006
-0.0391473
2.06046
0.109627
-0.0714531
2.12451
0.117526
-0.105488
2.17596
0.122557
-0.125519
2.20527
0.123668
-0.112311
2.20592
0.119676
-0.072269
2.1833
0.112069
-0.0370243
2.14797
0.103891
-0.0172236
2.10747
0.0967156
-0.00772505
2.06572
0.090852
-0.00343922
2.02442
0.086107
-0.00155023
1.98419
0.0821813
-0.00071608
1.94522
0.0788019
-0.000343091
1.90756
0.0757588
-0.000169176
1.87121
0.0728932
-8.64018e-05
1.83621
0.0700924
-4.50119e-05
1.80259
0.0672781
-2.40055e-05
1.77038
0.0644049
-1.24767e-05
1.73964
0.0614501
-5.75209e-06
1.71042
0.0584086
-2.79214e-06
1.68276
0.0552913
-1.62343e-06
1.6567
0.0521204
-1.21205e-06
1.63224
0.0489263
-6.07966e-07
1.60938
0.0457451
-1.5669e-07
1.58809
0.0426157
-5.8174e-08
1.56833
0.0395792
-7.01257e-08
1.55004
0.0366751
3.50714e-07
1.53312
0.0339383
2.14211e-07
1.51747
0.0314024
-5.73435e-07
1.50299
0.0290971
-8.16814e-07
1.48953
0.027045
-8.11784e-07
1.47697
0.0252609
-7.09925e-07
1.46516
0.0237511
-3.40297e-07
1.45397
0.0225134
2.48491e-07
1.44326
0.021535
1.28981e-07
1.43291
0.0207942
-4.44518e-07
1.42282
0.0202635
-3.52296e-07
1.41291
0.0199077
2.3991e-07
1.40309
0.0196872
5.55195e-07
1.39332
0.0195641
5.73565e-07
1.38358
0.0195027
4.01992e-07
1.37384
0.0194719
5.82822e-08
1.36412
0.0194471
-2.35414e-08
1.35441
0.0194099
1.7468e-07
1.34473
0.0193474
2.66243e-07
1.33509
0.019251
1.30132e-07
1.32552
0.0191146
1.46243e-07
1.31604
0.0189319
5.10277e-07
1.30668
0.0186958
6.56497e-07
1.29746
0.0183987
4.4613e-07
1.28842
0.0180318
3.86452e-07
1.27961
0.017586
6.6205e-07
1.27106
0.017053
8.32313e-07
1.26282
0.0164248
3.73228e-07
1.25495
0.0156961
-1.80934e-07
1.24749
0.0148641
-1.76732e-07
1.2405
0.0139273
-1.5413e-07
1.23403
0.0128862
-3.00873e-07
1.22813
0.0117416
-2.55701e-07
1.22285
0.0104934
-3.9241e-07
1.21826
0.00914055
-6.90645e-07
1.21439
0.00768056
-5.13697e-07
1.2113
0.00610678
-1.182e-07
1.20906
0.0044086
5.23432e-08
1.20774
0.00257158
1.8813e-07
1.2074
0.000576169
2.02132e-07
1.20815
-0.00160257
-5.11436e-08
1.21008
-0.00399545
-1.95579e-07
1.21333
-0.00664064
-6.96882e-08
1.21803
-0.00958405
1.44188e-07
1.22437
-0.0128788
3.86714e-07
1.23254
-0.016586
4.75497e-07
1.24279
-0.0207746
2.08179e-07
1.25539
-0.0255214
-1.52235e-07
1.27066
-0.0309094
-2.26919e-07
1.28897
-0.0370253
-4.06262e-08
1.31073
-0.0439541
1.10687e-07
1.33639
-0.0517699
6.87487e-09
1.36642
-0.0605229
-2.51827e-07
1.40132
-0.0702199
-3.28735e-07
1.44156
-0.0807985
-1.009e-07
1.48753
-0.092093
2.08847e-07
1.53946
-0.103796
3.86016e-07
1.59737
-0.115427
3.79806e-07
1.6609
-0.126323
1.822e-07
1.72927
-0.135698
-1.2254e-07
1.80125
-0.142799
-2.63971e-07
1.87533
-0.14721
-2.82707e-08
1.95008
-0.149272
3.7068e-07
2.02483
-0.150431
4.32711e-07
2.10031
-0.153231
5.88443e-08
2.17898
-0.16075
-2.30469e-07
2.2649
-0.175761
-6.65559e-08
2.3632
-0.199834
2.1355e-07
2.47902
-0.232271
1.82295e-07
2.61557
-0.268568
-2.77523e-08
2.77085
-0.298308
-1.108e-07
2.93253
-0.303489
-8.63729e-08
3.07357
-0.261729
-5.53182e-08
3.15968
-0.165365
3.41324e-08
3.18629
-0.0575712
1.51327e-07
3.16551
0.0337604
1.54287e-07
3.10815
0.106499
6.83804e-08
3.02463
0.160582
4.82314e-08
2.92269
0.200455
1.23659e-07
2.80657
0.232701
2.23498e-07
2.67421
0.267444
2.97186e-07
2.52025
0.310278
2.97338e-07
2.34028
0.359861
2.43465e-07
2.13333
0.41036
2.79127e-07
1.9037
0.452999
4.32804e-07
1.65965
0.481127
4.7203e-07
1.40998
0.493468
2.5907e-07
1.16146
0.49318
2.865e-08
0.918
0.485113
3.44462e-08
0.681023
0.47383
1.68821e-07
0.450148
0.462804
1.95027e-07
0.223857
0.454349
1.10843e-07
0.449815
5.51281e-08
0.408657
1.10002
-0.434589
0.725122
1.0263
-0.359428
0.931065
0.911001
-0.261485
1.04911
0.7859
-0.17643
1.1099
0.66958
-0.114432
1.13798
0.569241
-0.0729343
1.14963
0.485716
-0.0462116
1.15454
0.417105
-0.0292508
1.15811
0.360779
-0.0185093
1.1632
0.314254
-0.0116386
1.1712
0.275465
-0.00713752
1.18272
0.242796
-0.00408004
1.19793
0.215026
-0.00191565
1.21675
0.191243
-0.000329934
1.23897
0.170751
0.000919026
1.26439
0.153075
0.00203111
1.29277
0.13787
0.00311517
1.32387
0.124894
0.00424907
1.35744
0.113981
0.00549457
1.39326
0.105022
0.00689991
1.43113
0.0979541
0.00849704
1.4709
0.092744
0.0102959
1.51244
0.0893808
0.0122653
1.5557
0.0878525
0.0143235
1.60079
0.0881939
0.016339
1.64809
0.090523
0.0180025
1.69823
0.0950282
0.0186216
1.7519
0.101912
0.0168505
1.80927
0.111152
0.0105084
1.86945
0.121942
-0.00272512
1.93385
0.134289
-0.0227868
2.00132
0.147483
-0.0503674
2.06836
0.16003
-0.0836808
2.12954
0.170429
-0.113975
2.17707
0.177188
-0.123622
2.20128
0.178198
-0.0994469
2.19831
0.172374
-0.0596719
2.17512
0.162486
-0.0305388
2.14079
0.151943
-0.0146625
2.10161
0.142489
-0.00683426
2.06098
0.134575
-0.00315317
2.02049
0.128043
-0.00146374
1.98081
0.122555
-0.00069192
1.94217
0.117771
-0.000334834
1.90469
0.113409
-0.000166373
1.86841
0.109253
-8.42236e-05
1.8334
0.105148
-4.36974e-05
1.79971
0.100989
-2.27615e-05
1.76742
0.0967095
-1.16344e-05
1.7366
0.0922829
-6.08784e-06
1.7073
0.0877073
-3.23487e-06
1.67959
0.0830033
-2.0723e-06
1.6535
0.0782085
-1.37678e-06
1.62906
0.0733727
-6.1098e-08
1.60625
0.0685524
-8.09505e-08
1.58506
0.0638096
-1.79401e-07
1.56543
0.0592063
2.73026e-07
1.5473
0.0548019
-1.88456e-07
1.53058
0.0506549
-3.09235e-07
1.51517
0.0468169
-4.87265e-07
1.50093
0.0433323
-2.75302e-07
1.48775
0.0402353
-4.59439e-07
1.47546
0.0375499
-7.62694e-07
1.46392
0.0352884
2.70811e-08
1.45299
0.033446
3.09244e-07
1.44252
0.0320038
-3.51758e-07
1.43238
0.0309299
-5.13677e-07
1.42247
0.0301782
-2.08336e-07
1.41269
0.0296917
1.11536e-07
1.40296
0.0294089
4.67551e-07
1.39326
0.0292689
5.69607e-07
1.38355
0.0292151
2.53183e-07
1.37382
0.0291994
2.55541e-08
1.36408
0.0291848
-1.83836e-08
1.35435
0.0291446
-2.45408e-07
1.34463
0.0290623
-3.1525e-07
1.33495
0.0289271
-7.23003e-08
1.32534
0.0287305
9.90585e-08
1.31581
0.0284648
2.7328e-07
1.30638
0.0281207
4.34669e-07
1.29709
0.0276857
3.00475e-07
1.28798
0.0271461
2.36425e-07
1.27908
0.0264881
5.49506e-07
1.27043
0.0256974
5.94711e-07
1.26209
0.0247616
9.64419e-08
1.25411
0.0236728
-2.46998e-07
1.24655
0.0224266
-2.06483e-07
1.23946
0.0210218
-1.53449e-07
1.23288
0.0194598
-2.04609e-07
1.22688
0.0177424
-3.91145e-07
1.2215
0.0158712
-5.68982e-07
1.2168
0.0138465
-4.05821e-07
1.21281
0.0116642
-1.08117e-07
1.2096
0.00931557
-4.74138e-08
1.20723
0.00678631
-7.3047e-08
1.20574
0.00405528
-6.74781e-08
1.20522
0.0010939
-9.18853e-08
1.20576
-0.0021344
-1.22855e-08
1.20744
-0.00567588
1.1162e-07
1.21039
-0.00958751
6.03986e-08
1.21474
-0.0139368
2.31303e-08
1.22066
-0.0188027
1.71644e-07
1.22835
-0.0242767
2.0981e-07
1.23804
-0.0304633
-1.09731e-08
1.25
-0.0374795
-1.82793e-07
1.26455
-0.045454
-8.92005e-08
1.28204
-0.0545236
8.44766e-08
1.30292
-0.0648264
5.1914e-08
1.32763
-0.0764898
-1.71273e-07
1.35672
-0.0896133
-2.9262e-07
1.39075
-0.104241
-1.75071e-07
1.43027
-0.12032
2.84354e-08
1.47582
-0.137649
1.92087e-07
1.52783
-0.155804
2.96025e-07
1.58647
-0.174068
2.4273e-07
1.65152
-0.191376
-2.47537e-08
1.72217
-0.206344
-2.83662e-07
1.79684
-0.217469
-2.01717e-07
1.87326
-0.223633
2.14468e-07
1.94892
-0.224926
4.99683e-07
2.02203
-0.223548
2.709e-07
2.0928
-0.223994
-1.74817e-07
2.16397
-0.231921
-2.18522e-07
2.24082
-0.252616
1.48078e-07
2.33076
-0.289772
3.43977e-07
2.44272
-0.344229
1.40391e-07
2.58583
-0.411678
-1.05322e-07
2.76567
-0.478145
-1.34821e-07
2.97429
-0.512114
-5.14456e-08
3.16993
-0.457365
4.56503e-08
3.26747
-0.262906
1.54495e-07
3.27762
-0.0677196
1.99907e-07
3.23825
0.0731298
1.3666e-07
3.16223
0.182517
6.45587e-08
3.0645
0.258312
6.63858e-08
2.95494
0.310015
1.24205e-07
2.84131
0.346327
2.14985e-07
2.71704
0.391715
2.93198e-07
2.56983
0.457491
2.9047e-07
2.39078
0.53891
2.75315e-07
2.17597
0.625173
3.80731e-07
1.93183
0.69714
4.97112e-07
1.67199
0.740966
3.72954e-07
1.40969
0.755763
6.67351e-08
1.15339
0.74948
-8.54297e-08
0.906716
0.731787
1.79025e-08
0.669998
0.710548
1.40389e-07
0.441692
0.69111
1.2236e-07
0.219324
0.676717
5.06743e-08
0.669139
2.75659e-08
0.334937
1.18445
-0.269949
0.609827
1.12313
-0.23105
0.805965
1.02199
-0.176386
0.932794
0.905512
-0.12503
1.00956
0.790897
-0.0847767
1.05445
0.686951
-0.0560561
1.08102
0.596606
-0.0365564
1.09821
0.519637
-0.0236522
1.11159
0.454508
-0.0151869
1.12441
0.39935
-0.00958719
1.13853
0.352413
-0.00579616
1.15495
0.312218
-0.00313926
1.17415
0.277589
-0.0012099
1.19625
0.247594
0.000237008
1.22129
0.221538
0.00144832
1.24919
0.198921
0.00256927
1.2798
0.179382
0.00369668
1.31296
0.162672
0.00490224
1.34848
0.148623
0.00624293
1.38619
0.137136
0.00776227
1.42592
0.128161
0.0094828
1.46753
0.12168
0.0113978
1.51091
0.117692
0.0134535
1.55604
0.116197
0.0155464
1.60312
0.117277
0.0174817
1.6526
0.121086
0.0187931
1.70511
0.12781
0.0185095
1.76114
0.137518
0.014891
1.82006
0.149743
0.00553063
1.8818
0.163497
-0.0108878
1.94704
0.178949
-0.0341676
2.01387
0.194842
-0.0642837
2.07876
0.209589
-0.0970456
2.1363
0.221604
-0.120424
2.17808
0.228676
-0.116629
2.19545
0.228113
-0.0834092
2.18843
0.220156
-0.0472582
2.16458
0.20857
-0.0242535
2.13134
0.196566
-0.0119344
2.09369
0.185738
-0.00574167
2.05444
0.176525
-0.00273922
2.015
0.168787
-0.00131131
1.97602
0.162168
-0.000635451
1.93781
0.156295
-0.000313866
1.90053
0.150843
-0.000158394
1.86431
0.14556
-8.02846e-05
1.82924
0.140259
-4.18736e-05
1.79543
0.134815
-2.28636e-05
1.76299
0.129161
-1.24155e-05
1.73202
0.123264
-6.32408e-06
1.7026
0.117133
-3.08014e-06
1.67479
0.110806
-1.39232e-06
1.64867
0.104339
-4.8618e-07
1.62424
0.097804
-1.9386e-07
1.60151
0.0912829
-5.55257e-07
1.58045
0.0848634
-2.10318e-07
1.56102
0.0786316
-7.41557e-08
1.54315
0.0726723
1.2391e-07
1.52674
0.0670648
1.00629e-07
1.51168
0.0618801
-3.71601e-08
1.49784
0.0571795
-4.15738e-07
1.48506
0.053013
-8.33804e-07
1.4732
0.0494161
-2.56367e-07
1.46208
0.0464053
2.63664e-07
1.45155
0.0439765
-1.91771e-07
1.44144
0.0421052
-5.33911e-07
1.43163
0.0407448
-4.62635e-07
1.42198
0.0398279
-2.84282e-07
1.4124
0.0392722
6.01667e-08
1.40282
0.0389883
4.64332e-07
1.39321
0.0388877
5.12496e-07
1.38353
0.038889
1.64219e-07
1.3738
0.0389253
-8.17081e-08
1.36404
0.0389472
-3.73791e-07
1.35426
0.0389221
-5.77414e-07
1.34449
0.0388314
-3.04027e-07
1.33476
0.0386647
-9.61318e-08
1.32507
0.0384158
1.15512e-07
1.31546
0.038077
4.71003e-07
1.30595
0.0376359
2.20909e-07
1.29655
0.0370765
-2.18061e-07
1.28732
0.0363799
9.67593e-08
1.27829
0.0355238
5.56298e-07
1.26949
0.0344866
3.26381e-07
1.261
0.0332513
-1.69824e-07
1.25287
0.031807
-2.51714e-07
1.24515
0.0301482
-2.5997e-08
1.23789
0.0282746
2.03509e-08
1.23116
0.0261892
-2.0983e-07
1.22501
0.0238973
-3.62814e-07
1.21948
0.0214036
-2.29092e-07
1.21461
0.0187101
-6.95991e-08
1.21046
0.0158136
-1.06627e-07
1.20707
0.0127047
-1.9704e-07
1.20449
0.00936553
-2.47019e-07
1.20278
0.00576927
-2.44213e-07
1.202
0.00187927
-2.65936e-08
1.20222
-0.00235245
2.76621e-07
1.20353
-0.00698672
2.18493e-07
1.20604
-0.0120977
-1.25992e-07
1.20987
-0.0177735
-2.28043e-07
1.21519
-0.0241186
-4.17867e-08
1.22217
-0.0312546
4.46053e-08
1.23103
-0.0393217
-3.81324e-08
1.24203
-0.0484789
-4.66853e-08
1.25548
-0.0589037
4.61505e-08
1.27174
-0.0707896
1.70867e-08
1.29125
-0.0843385
-1.74796e-07
1.31451
-0.0997497
-2.87216e-07
1.3421
-0.1172
-2.06212e-07
1.37467
-0.13681
-8.72897e-08
1.41294
-0.158593
1.48702e-09
1.45767
-0.182379
1.33078e-07
1.50957
-0.207703
2.03492e-07
1.56916
-0.233664
3.24853e-08
1.63655
-0.258768
-2.53885e-07
1.71104
-0.280831
-3.06728e-07
1.79068
-0.297102
6.10635e-09
1.87197
-0.304925
3.85418e-07
1.9503
-0.303254
3.70589e-07
2.02159
-0.294841
-6.30307e-08
2.08487
-0.287276
-3.44226e-07
2.14327
-0.290324
-7.90042e-08
2.20367
-0.313008
3.22209e-07
2.2763
-0.362411
2.83462e-07
2.37527
-0.443195
-6.81293e-08
2.51936
-0.555772
-2.30558e-07
2.7317
-0.690481
-1.09838e-07
3.02904
-0.809457
4.49072e-08
3.36439
-0.792712
1.23232e-07
3.46266
-0.361173
1.62177e-07
3.41847
-0.0235318
1.45522e-07
3.34764
0.143961
7.27478e-08
3.23803
0.292126
1.42663e-08
3.1162
0.380136
3.12102e-08
2.99125
0.434965
1.49346e-07
2.8867
0.450879
3.1607e-07
2.78282
0.495596
3.76676e-07
2.65125
0.589062
2.88843e-07
2.47704
0.713115
2.5488e-07
2.24793
0.854284
3.81701e-07
1.97565
0.969419
4.28218e-07
1.68678
1.02983
1.99048e-07
1.40341
1.03914
-8.11451e-08
1.1357
1.01719
-1.12243e-07
0.885478
0.982006
3.28728e-08
0.650559
0.945467
1.05048e-07
0.427299
0.914369
6.45605e-08
0.211746
0.892271
1.22945e-08
0.880885
-2.17751e-08
0.273615
1.20721
-0.163467
0.508688
1.15874
-0.143733
0.68949
1.07548
-0.114317
0.818179
0.974712
-0.0847101
0.905614
0.870449
-0.0598671
0.964107
0.771319
-0.0410197
1.00405
0.681422
-0.0275411
1.03308
0.601947
-0.0182154
1.05643
0.532532
-0.0118344
1.07747
0.472153
-0.00743679
1.09834
0.419613
-0.0043378
1.12032
0.373785
-0.00208651
1.14415
0.333694
-0.00040661
1.1702
0.298526
0.00092118
1.19868
0.267683
0.00209969
1.22965
0.240713
0.00324093
1.26309
0.217296
0.00442686
1.29891
0.197212
0.00572142
1.33699
0.18033
0.00717589
1.37721
0.166588
0.008823
1.41944
0.155972
0.0106707
1.46354
0.1485
0.0126867
1.50942
0.144186
0.0147874
1.55712
0.143099
0.0168322
1.60693
0.145375
0.0184987
1.65932
0.15119
0.0190785
1.71482
0.160653
0.0172226
1.77337
0.173491
0.0107965
1.83381
0.188468
-0.00237893
1.89725
0.20555
-0.0220707
1.96294
0.223919
-0.0485809
2.02862
0.242037
-0.080207
2.09077
0.258327
-0.109614
2.14337
0.270814
-0.121793
2.17752
0.276471
-0.103124
2.1875
0.273154
-0.0660214
2.17684
0.263146
-0.036187
2.15258
0.250435
-0.0187275
2.12051
0.237736
-0.00940936
2.08448
0.22634
-0.00464883
2.04671
0.216565
-0.00228252
2.00838
0.208228
-0.0011249
1.97015
0.20096
-0.000560241
1.93236
0.194367
-0.000282881
1.89525
0.188098
-0.000144285
1.85901
0.181877
-7.44647e-05
1.8238
0.175507
-3.98054e-05
1.78978
0.168856
-2.09229e-05
1.7571
0.161852
-1.11858e-05
1.72589
0.154478
-5.58657e-06
1.69627
0.146758
-2.70302e-06
1.66833
0.138749
-1.49219e-06
1.64213
0.130536
-5.62942e-07
1.61771
0.12222
-1.5585e-07
1.59509
0.113913
-2.16361e-07
1.57422
0.105729
1.3819e-07
1.55507
0.0977852
7.20838e-08
1.53755
0.0901919
2.58676e-07
1.52156
0.0830516
-8.10487e-08
1.50698
0.0764577
-5.992e-07
1.49367
0.0704921
-6.41828e-07
1.48146
0.065222
-4.25049e-07
1.47019
0.060696
-2.62371e-08
1.45965
0.0569393
-5.04024e-08
1.44968
0.0539501
-4.81145e-07
1.44008
0.0516971
-6.44391e-07
1.43071
0.050117
-3.35937e-07
1.42143
0.0491163
-1.0026e-07
1.41212
0.0485804
8.73843e-09
1.40272
0.0483847
4.31043e-07
1.39321
0.0484042
4.48493e-07
1.38357
0.0485272
8.09277e-08
1.37383
0.0486656
-1.03802e-07
1.36402
0.0487573
-3.76815e-07
1.35417
0.0487661
-4.31657e-07
1.34433
0.0486765
-1.41506e-07
1.33451
0.0484851
2.4795e-07
1.32473
0.0481912
5.73649e-07
1.31502
0.0477895
2.0993e-07
1.30539
0.0472681
-3.75071e-07
1.29586
0.0466062
-1.10438e-07
1.28646
0.0457745
4.38875e-07
1.27725
0.0447403
3.86044e-07
1.26826
0.0434735
-2.6188e-08
1.25956
0.0419505
-2.22971e-07
1.25121
0.0401565
-7.69614e-09
1.24327
0.0380855
2.33823e-07
1.23581
0.0357391
8.4865e-08
1.22887
0.033125
-1.56697e-07
1.22252
0.0302539
-1.08898e-07
1.21678
0.0271358
-1.7073e-08
1.21172
0.0237765
-1.07869e-07
1.20736
0.0201758
-1.98426e-07
1.20374
0.0163242
-2.41017e-07
1.2009
0.0122017
-3.05368e-07
1.19889
0.00777716
-1.65333e-07
1.19776
0.00300668
2.49187e-07
1.19758
-0.00216828
4.33428e-07
1.19842
-0.00782158
6.93526e-08
1.20036
-0.0140431
-3.75134e-07
1.20353
-0.0209409
-3.78963e-07
1.20805
-0.0286433
-9.66829e-08
1.2141
-0.0373013
6.66014e-08
1.22187
-0.0470899
6.89679e-08
1.2316
-0.0582108
5.81576e-08
1.24359
-0.0708933
-1.1737e-08
1.25819
-0.085393
-2.12585e-07
1.27584
-0.101988
-3.62598e-07
1.29706
-0.120971
-2.94977e-07
1.32249
-0.142627
-1.52557e-07
1.35288
-0.167206
-8.10214e-08
1.38915
-0.194864
1.17925e-08
1.43234
-0.225572
1.22761e-07
1.48361
-0.258966
4.29573e-08
1.54406
-0.294117
-2.27233e-07
1.61449
-0.329202
-3.79792e-07
1.69477
-0.361109
-2.00735e-07
1.78285
-0.385184
1.71764e-07
1.87364
-0.395711
3.52276e-07
1.95871
-0.388323
9.3858e-08
2.02915
-0.365283
-3.0148e-07
2.08182
-0.339946
-2.63547e-07
2.12059
-0.32909
1.80069e-07
2.15426
-0.346683
3.7021e-07
2.19552
-0.40367
4.7653e-08
2.26269
-0.510368
-2.76652e-07
2.38466
-0.677735
-1.99231e-07
2.61272
-0.918548
3.80142e-08
3.04579
-1.24252
1.05676e-07
3.79593
-1.57433
6.76873e-08
3.8003
-0.510997
8.87458e-08
3.58596
0.201176
8.84547e-08
3.4958
0.244627
1.24974e-08
3.32604
0.470341
-2.72539e-08
3.17103
0.540489
9.52714e-08
3.00717
0.598829
3.62891e-07
2.93142
0.526629
5.40096e-07
2.87629
0.550727
4.23532e-07
2.7753
0.690045
1.77372e-07
2.61821
0.870205
1.49537e-07
2.36307
1.10943
3.13778e-07
2.03607
1.29642
3.12986e-07
1.69609
1.36981
7.07132e-08
1.38146
1.35377
-1.06462e-07
1.10051
1.29814
-6.0978e-08
0.848938
1.23358
2.92594e-08
0.619461
1.17494
2.60943e-08
0.405202
1.12863
-1.07311e-08
0.200359
1.09711
-5.35474e-08
1.08124
-1.41627e-07
0.225155
1.20087
-0.098643
0.425423
1.16308
-0.0885194
0.588723
1.09611
-0.0727367
0.713916
1.01173
-0.0559128
0.806484
0.920542
-0.0409457
0.87421
0.830067
-0.0289613
0.924572
0.744706
-0.0199608
0.96367
0.666509
-0.0134297
0.996052
0.596048
-0.00874575
1.02493
0.53309
-0.0053637
1.05251
0.477046
-0.00287227
1.08023
0.427219
-0.000996643
1.10898
0.382904
0.000456099
1.13936
0.343529
0.00170103
1.17171
0.308639
0.00286808
1.20623
0.277888
0.0040494
1.243
0.251037
0.00531449
1.28202
0.227941
0.00671874
1.32325
0.208535
0.00830417
1.3666
0.192824
0.0100856
1.41197
0.18086
0.0120469
1.45923
0.172705
0.0141202
1.50833
0.16845
0.0161895
1.5594
0.168263
0.0180179
1.61274
0.172341
0.0190714
1.66878
0.180831
0.0182896
1.72766
0.193567
0.0138782
1.78834
0.209506
0.003568
1.85089
0.227794
-0.0133658
1.91562
0.248133
-0.036666
1.98105
0.268987
-0.0658884
2.04491
0.288735
-0.0967516
2.10326
0.305656
-0.118304
2.14902
0.316982
-0.114786
2.1742
0.319419
-0.0839803
2.17749
0.312963
-0.0496303
2.16413
0.301392
-0.0269574
2.13988
0.288228
-0.0141244
2.10911
0.275582
-0.00723338
2.0747
0.264369
-0.00365822
2.03837
0.254732
-0.001844
2.00112
0.24641
-0.000933031
1.96356
0.238998
-0.000474943
1.92609
0.232076
-0.00024517
1.88903
0.225283
-0.000127885
1.85264
0.218338
-6.65561e-05
1.81715
0.211033
-3.52576e-05
1.78277
0.203245
-1.88404e-05
1.74972
0.194914
-1.02766e-05
1.71817
0.186038
-5.29456e-06
1.68826
0.17667
-2.49225e-06
1.66011
0.166897
-1.46868e-06
1.63381
0.156837
-5.17371e-07
1.60941
0.146628
-3.31208e-07
1.5869
0.136418
2.45088e-07
1.56628
0.126356
4.394e-07
1.54747
0.11659
4.95984e-07
1.53041
0.107258
1.71517e-07
1.51497
0.0984911
-4.12297e-07
1.50102
0.0904066
-4.3117e-07
1.4884
0.0831091
-4.46753e-07
1.47694
0.0766871
-2.72266e-07
1.46643
0.0712066
-4.93901e-08
1.45666
0.0667058
-4.0947e-07
1.44742
0.0631886
-7.1239e-07
1.4385
0.0606175
-3.28286e-07
1.42971
0.0589092
-2.90875e-08
1.42089
0.0579385
-4.04438e-07
1.41192
0.0575488
-1.70076e-07
1.40274
0.0575658
4.22446e-07
1.39333
0.0578164
2.2911e-07
1.38371
0.0581506
8.23211e-08
1.37392
0.0584532
5.32054e-10
1.36402
0.0586504
-3.36805e-07
1.35408
0.0587088
-1.68898e-07
1.34414
0.0586242
4.22699e-07
1.33421
0.0584079
6.8512e-07
1.32433
0.0580721
2.42663e-07
1.3145
0.0576209
-2.98564e-07
1.30473
0.0570423
-8.07158e-08
1.29503
0.0563063
3.90671e-07
1.28543
0.0553707
4.11887e-07
1.27598
0.0541886
1.64423e-07
1.26674
0.0527164
-1.25042e-07
1.25777
0.0509212
-1.42429e-07
1.24914
0.0487837
2.13849e-07
1.24093
0.0462981
3.08439e-07
1.23319
0.0434707
-2.66473e-08
1.226
0.0403171
-1.75108e-07
1.2194
0.0368572
-5.69416e-08
1.21342
0.0331089
-5.09563e-08
1.20812
0.0290851
-1.26676e-07
1.2035
0.0247893
-1.76903e-07
1.19961
0.0202143
-2.91471e-07
1.19647
0.0153397
-2.98185e-07
1.19412
0.0101313
5.68753e-08
1.19259
0.00453852
4.6913e-07
1.19193
-0.00150627
3.75166e-07
1.19219
-0.00808834
-1.71422e-07
1.19346
-0.015312
-5.29287e-07
1.19583
-0.0233032
-3.64871e-07
1.1994
-0.0322125
-7.96172e-09
1.20431
-0.0422174
1.46881e-07
1.21075
-0.0535261
1.10352e-07
1.21892
-0.0663818
1.33914e-08
1.22909
-0.0810659
-1.78644e-07
1.2416
-0.097901
-4.17501e-07
1.25686
-0.117251
-4.6996e-07
1.2754
-0.139518
-2.959e-07
1.29791
-0.165131
-1.13011e-07
1.32522
-0.194523
-4.01087e-09
1.35844
-0.228085
9.10668e-08
1.39895
-0.266079
7.58955e-08
1.44846
-0.308471
-1.49782e-07
1.50897
-0.354635
-3.96719e-07
1.58258
-0.402812
-3.81282e-07
1.6707
-0.449219
-7.10388e-08
1.77233
-0.486813
2.61246e-07
1.88103
-0.504412
2.57093e-07
1.98175
-0.489043
-9.17753e-08
2.05449
-0.438024
-2.86344e-07
2.09268
-0.378132
7.65067e-09
2.103
-0.33941
3.51986e-07
2.09727
-0.340963
1.90732e-07
2.08882
-0.395221
-2.21778e-07
2.09533
-0.51687
-2.66268e-07
2.14384
-0.72625
2.37396e-08
2.28875
-1.06346
1.37855e-07
2.71398
-1.61988
-1.49685e-08
4.85926
-2.63799
-8.25012e-08
4.51247
-2.37434
7.72034e-08
3.62941
-0.191528
6.38038e-08
3.72151
1.79475
-1.55433e-08
3.39618
1.95904
5.35356e-08
3.22937
1.36031
3.65239e-07
2.93497
0.971568
6.74979e-07
2.95551
0.553154
6.47502e-07
3.0156
0.530969
2.65723e-07
2.95546
0.776972
-2.79997e-08
2.85744
0.994248
6.75218e-08
2.55005
1.41681
2.84439e-07
2.10947
1.737
2.55679e-07
1.68004
1.79924
6.12663e-08
1.32583
1.70798
-3.02061e-08
1.03595
1.58802
-2.56668e-08
0.790303
1.47923
-6.64204e-08
0.573145
1.3921
-1.1933e-07
0.373689
1.32808
-1.22945e-07
0.18449
1.28631
-1.78162e-07
1.26573
-3.28379e-07
0.187367
1.18376
-0.0599165
0.358452
1.15412
-0.0545558
0.504341
1.1003
-0.0459369
0.622728
1.03021
-0.0363422
0.716009
0.951617
-0.0273978
0.788848
0.870671
-0.0198901
0.846376
0.791521
-0.0139694
0.893209
0.71659
-0.00945305
0.933094
0.647055
-0.0060454
0.968889
0.583306
-0.00345905
1.00268
0.525286
-0.00147049
1.03591
0.472692
7.67226e-05
1.06961
0.425174
0.00138116
1.10447
0.382405
0.00257702
1.14096
0.344108
0.00376193
1.17938
0.310083
0.00501015
1.21991
0.280204
0.00637985
1.26262
0.254431
0.00791502
1.30754
0.2328
0.00963982
1.35463
0.215412
0.0115442
1.40381
0.202403
0.0135732
1.45497
0.193929
0.0156226
1.50814
0.190234
0.0175006
1.56348
0.191596
0.0187787
1.62123
0.198242
0.0185936
1.68152
0.210118
0.0154356
1.7436
0.226383
0.00722127
1.80663
0.245606
-0.00748109
1.87123
0.267607
-0.0282143
1.93647
0.290859
-0.05491
2.0008
0.313585
-0.0850471
2.06183
0.334166
-0.110878
2.11459
0.350227
-0.118507
2.15146
0.358255
-0.0977772
2.16774
0.356382
-0.0629529
2.16592
0.347314
-0.0359048
2.15096
0.334967
-0.0196154
2.12723
0.322117
-0.0104278
2.0979
0.310284
-0.00544153
2.06507
0.3
-0.00281264
2.03005
0.291197
-0.00145232
1.9937
0.283505
-0.00075291
1.95663
0.276459
-0.000393294
1.9193
0.269617
-0.000206839
1.88208
0.262607
-0.000109029
1.84533
0.255146
-5.78795e-05
1.80936
0.24704
-3.12326e-05
1.77444
0.238175
-1.73634e-05
1.74085
0.228516
-9.79956e-06
1.7088
0.218092
-4.40236e-06
1.67849
0.206986
-2.53025e-06
1.65005
0.195329
-1.87516e-06
1.62361
0.183285
-4.70475e-07
1.5992
0.171037
5.97711e-08
1.57684
0.158775
3.73605e-07
1.55651
0.146688
2.19296e-07
1.53814
0.13496
9.3888e-08
1.52164
0.12376
-3.02925e-08
1.50688
0.113248
-8.45675e-08
1.49372
0.103568
-1.21434e-07
1.48198
0.094851
-1.46664e-07
1.47146
0.0872106
-7.94225e-08
1.46193
0.0807369
-3.85457e-07
1.45315
0.0754891
-5.7537e-07
1.44485
0.0714819
-4.2596e-07
1.4368
0.0686743
-2.69742e-07
1.42874
0.0669624
-5.24472e-07
1.4205
0.06618
-6.74292e-07
1.41194
0.0661112
-7.47877e-08
1.40299
0.0665126
1.73844e-07
1.39366
0.0671458
9.18408e-08
1.38401
0.0678066
2.13135e-07
1.37412
0.0683464
-3.44289e-08
1.36408
0.0686832
-4.69008e-08
1.354
0.0687954
5.70019e-07
1.34392
0.0687034
8.13774e-07
1.33388
0.0684483
3.52763e-07
1.32388
0.0680684
-1.01568e-07
1.31392
0.0675811
2.07792e-08
1.30399
0.0669739
3.62548e-07
1.29409
0.066205
4.52688e-07
1.28425
0.0652124
3.579e-07
1.27451
0.063926
5.87261e-09
1.26494
0.0622824
-3.31071e-07
1.25563
0.0602355
-4.00814e-08
1.24665
0.0577598
3.53508e-07
1.2381
0.0548517
6.2787e-08
1.23004
0.0515273
-3.57376e-07
1.22254
0.0478154
-2.685e-07
1.21565
0.043749
-3.0207e-08
1.2094
0.0393581