/*--------------------------------*- C++ -*----------------------------------*\
| =========                 |                                                 |
| \\      /  F ield         | OpenFOAM: The Open Source CFD Toolbox           |
|  \\    /   O peration     | Version:  2.1.0                                 |
|   \\  /    A nd           | Web:      www.OpenFOAM.org                      |
|    \\/     M anipulation  |                                                 |
\*---------------------------------------------------------------------------*/
FoamFile
{
    version     2.0;
    format      ascii;
    class       volScalarField;
    location    "20075";
    object      po;
}
// * * * * * * * * * * * * * * * * * * * * * * * * * * * * * * * * * * * * * //

dimensions      [1 -1 -2 0 0 0 0];

internalField   nonuniform List<scalar> 
75000
(
4376.58
4376.04
4375.12
4374
4372.79
4371.55
4370.31
4369.08
4367.86
4366.65
4365.44
4364.24
4363.02
4361.8
4360.56
4359.31
4358.02
4356.72
4355.38
4354.02
4352.62
4351.18
4349.7
4348.19
4346.63
4345.03
4343.39
4341.7
4339.96
4338.16
4336.3
4334.39
4332.4
4330.34
4328.22
4326.05
4323.84
4321.63
4319.44
4317.29
4315.18
4313.11
4311.08
4309.1
4307.15
4305.24
4303.37
4301.53
4299.73
4297.96
4296.21
4294.5
4292.82
4291.16
4289.53
4287.92
4286.33
4284.76
4283.2
4281.67
4280.15
4278.65
4277.16
4275.68
4274.21
4272.76
4271.32
4269.88
4268.46
4267.05
4265.64
4264.25
4262.87
4261.49
4260.13
4258.77
4257.43
4256.09
4254.77
4253.45
4252.15
4250.85
4249.56
4248.28
4247.01
4245.74
4244.49
4243.24
4242
4240.77
4239.54
4238.31
4237.09
4235.88
4234.67
4233.46
4232.25
4231.04
4229.83
4228.62
4227.4
4226.18
4224.96
4223.72
4222.48
4221.22
4219.95
4218.65
4217.34
4216
4214.63
4213.22
4211.77
4210.28
4208.74
4207.13
4205.47
4203.73
4201.93
4200.05
4198.1
4196.08
4193.97
4191.78
4189.51
4187.13
4184.64
4182.01
4179.24
4176.33
4173.3
4170.18
4167.04
4163.91
4160.83
4157.83
4154.92
4152.14
4149.48
4146.99
4144.67
4142.56
4140.67
4139.01
4137.6
4136.44
4135.52
4134.83
4134.38
4134.15
4376.05
4375.56
4374.72
4373.68
4372.53
4371.33
4370.13
4368.93
4367.73
4366.54
4365.35
4364.15
4362.95
4361.73
4360.5
4359.25
4357.98
4356.68
4355.34
4353.98
4352.58
4351.15
4349.67
4348.16
4346.61
4345.01
4343.36
4341.67
4339.92
4338.12
4336.26
4334.34
4332.34
4330.28
4328.16
4325.98
4323.78
4321.57
4319.39
4317.24
4315.13
4313.07
4311.04
4309.06
4307.11
4305.21
4303.33
4301.5
4299.7
4297.93
4296.19
4294.48
4292.79
4291.14
4289.5
4287.89
4286.31
4284.74
4283.19
4281.65
4280.14
4278.63
4277.14
4275.67
4274.2
4272.75
4271.31
4269.87
4268.45
4267.04
4265.63
4264.24
4262.86
4261.48
4260.12
4258.76
4257.42
4256.08
4254.76
4253.44
4252.14
4250.84
4249.55
4248.27
4247
4245.74
4244.48
4243.23
4241.99
4240.76
4239.53
4238.31
4237.09
4235.88
4234.66
4233.46
4232.25
4231.04
4229.83
4228.62
4227.41
4226.19
4224.97
4223.73
4222.49
4221.24
4219.97
4218.68
4217.37
4216.03
4214.66
4213.26
4211.82
4210.33
4208.79
4207.2
4205.53
4203.81
4202
4200.13
4198.18
4196.15
4194.05
4191.87
4189.61
4187.25
4184.77
4182.15
4179.38
4176.45
4173.37
4170.22
4167.03
4163.86
4160.76
4157.73
4154.81
4152
4149.33
4146.81
4144.47
4142.33
4140.43
4138.77
4137.36
4136.2
4135.28
4134.6
4134.15
4133.93
4375.14
4374.73
4374.01
4373.08
4372.03
4370.92
4369.78
4368.63
4367.48
4366.32
4365.16
4363.98
4362.8
4361.6
4360.39
4359.15
4357.88
4356.59
4355.27
4353.91
4352.52
4351.09
4349.61
4348.1
4346.55
4344.95
4343.3
4341.6
4339.85
4338.04
4336.17
4334.24
4332.23
4330.17
4328.04
4325.86
4323.66
4321.46
4319.28
4317.14
4315.04
4312.98
4310.96
4308.98
4307.04
4305.13
4303.26
4301.43
4299.63
4297.86
4296.13
4294.42
4292.74
4291.09
4289.46
4287.85
4286.27
4284.7
4283.15
4281.62
4280.11
4278.61
4277.12
4275.64
4274.18
4272.73
4271.28
4269.85
4268.43
4267.02
4265.61
4264.22
4262.84
4261.46
4260.1
4258.74
4257.4
4256.07
4254.74
4253.42
4252.12
4250.82
4249.53
4248.25
4246.98
4245.72
4244.47
4243.22
4241.98
4240.75
4239.52
4238.3
4237.08
4235.87
4234.66
4233.45
4232.25
4231.04
4229.84
4228.63
4227.42
4226.2
4224.98
4223.75
4222.52
4221.27
4220
4218.72
4217.42
4216.09
4214.73
4213.34
4211.91
4210.44
4208.91
4207.32
4205.67
4203.95
4202.15
4200.28
4198.33
4196.31
4194.21
4192.05
4189.81
4187.48
4185.04
4182.45
4179.68
4176.71
4173.54
4170.27
4167
4163.76
4160.59
4157.53
4154.58
4151.73
4149.02
4146.45
4144.06
4141.88
4139.95
4138.28
4136.87
4135.71
4134.81
4134.14
4133.7
4133.48
4374.04
4373.71
4373.1
4372.29
4371.36
4370.35
4369.3
4368.21
4367.12
4366.01
4364.88
4363.74
4362.59
4361.41
4360.22
4359
4357.75
4356.47
4355.15
4353.81
4352.42
4350.99
4349.53
4348.01
4346.46
4344.86
4343.2
4341.5
4339.74
4337.92
4336.03
4334.09
4332.07
4330
4327.86
4325.68
4323.49
4321.3
4319.13
4317
4314.91
4312.85
4310.84
4308.86
4306.92
4305.02
4303.16
4301.33
4299.53
4297.77
4296.04
4294.34
4292.66
4291.01
4289.39
4287.79
4286.21
4284.65
4283.1
4281.58
4280.06
4278.57
4277.08
4275.61
4274.15
4272.69
4271.25
4269.82
4268.4
4266.99
4265.58
4264.19
4262.81
4261.43
4260.07
4258.72
4257.37
4256.04
4254.71
4253.4
4252.09
4250.79
4249.51
4248.23
4246.96
4245.7
4244.44
4243.2
4241.96
4240.73
4239.51
4238.29
4237.07
4235.86
4234.65
4233.45
4232.25
4231.04
4229.84
4228.64
4227.43
4226.22
4225.01
4223.79
4222.55
4221.31
4220.06
4218.79
4217.49
4216.18
4214.84
4213.46
4212.05
4210.59
4209.08
4207.51
4205.88
4204.17
4202.37
4200.5
4198.55
4196.53
4194.45
4192.3
4190.1
4187.82
4185.45
4182.93
4180.2
4177.17
4173.8
4170.34
4166.92
4163.57
4160.34
4157.22
4154.23
4151.34
4148.56
4145.91
4143.43
4141.18
4139.21
4137.52
4136.12
4134.98
4134.1
4133.45
4133.02
4132.81
4372.86
4372.59
4372.08
4371.39
4370.57
4369.66
4368.7
4367.7
4366.66
4365.61
4364.53
4363.43
4362.31
4361.17
4360
4358.8
4357.57
4356.3
4355
4353.67
4352.29
4350.87
4349.41
4347.9
4346.34
4344.73
4343.08
4341.36
4339.59
4337.75
4335.86
4333.89
4331.86
4329.77
4327.63
4325.45
4323.27
4321.09
4318.94
4316.82
4314.73
4312.68
4310.68
4308.71
4306.77
4304.88
4303.02
4301.2
4299.41
4297.65
4295.92
4294.23
4292.56
4290.92
4289.3
4287.7
4286.13
4284.57
4283.04
4281.51
4280.01
4278.51
4277.03
4275.56
4274.1
4272.65
4271.21
4269.78
4268.36
4266.95
4265.55
4264.15
4262.77
4261.4
4260.03
4258.68
4257.33
4256
4254.67
4253.36
4252.05
4250.76
4249.47
4248.19
4246.93
4245.67
4244.41
4243.17
4241.94
4240.71
4239.48
4238.27
4237.06
4235.85
4234.64
4233.44
4232.24
4231.05
4229.85
4228.65
4227.45
4226.25
4225.04
4223.82
4222.6
4221.37
4220.13
4218.87
4217.59
4216.3
4214.97
4213.62
4212.23
4210.8
4209.32
4207.77
4206.16
4204.46
4202.68
4200.81
4198.85
4196.82
4194.74
4192.62
4190.46
4188.27
4186
4183.62
4181.01
4177.96
4174.16
4170.36
4166.78
4163.28
4159.96
4156.79
4153.78
4150.85
4147.97
4145.2
4142.58
4140.21
4138.18
4136.48
4135.1
4134
4133.15
4132.53
4132.13
4131.93
4371.65
4371.43
4371
4370.41
4369.7
4368.89
4368.02
4367.09
4366.13
4365.13
4364.11
4363.06
4361.98
4360.87
4359.73
4358.56
4357.35
4356.11
4354.82
4353.5
4352.13
4350.72
4349.26
4347.76
4346.2
4344.58
4342.91
4341.19
4339.4
4337.55
4335.63
4333.65
4331.61
4329.5
4327.35
4325.18
4323
4320.84
4318.7
4316.59
4314.51
4312.48
4310.47
4308.51
4306.58
4304.7
4302.84
4301.03
4299.24
4297.49
4295.78
4294.09
4292.43
4290.79
4289.18
4287.6
4286.03
4284.48
4282.95
4281.44
4279.94
4278.45
4276.97
4275.51
4274.05
4272.6
4271.16
4269.73
4268.31
4266.9
4265.5
4264.1
4262.72
4261.35
4259.98
4258.63
4257.28
4255.95
4254.63
4253.31
4252.01
4250.71
4249.43
4248.15
4246.88
4245.63
4244.38
4243.14
4241.9
4240.68
4239.46
4238.24
4237.04
4235.83
4234.63
4233.44
4232.24
4231.05
4229.86
4228.66
4227.47
4226.28
4225.08
4223.87
4222.66
4221.44
4220.21
4218.97
4217.71
4216.44
4215.14
4213.82
4212.46
4211.06
4209.61
4208.1
4206.52
4204.85
4203.08
4201.19
4199.21
4197.16
4195.07
4192.96
4190.87
4188.78
4186.68
4184.54
4182.25
4179.53
4174.68
4170.16
4166.53
4162.81
4159.42
4156.19
4153.25
4150.3
4147.28
4144.32
4141.47
4138.92
4136.81
4135.13
4133.8
4132.77
4131.98
4131.4
4131.03
4130.84
4370.45
4370.26
4369.91
4369.4
4368.78
4368.06
4367.27
4366.43
4365.53
4364.6
4363.63
4362.63
4361.59
4360.52
4359.42
4358.28
4357.1
4355.88
4354.62
4353.31
4351.95
4350.55
4349.1
4347.59
4346.02
4344.4
4342.72
4340.98
4339.17
4337.3
4335.36
4333.36
4331.3
4329.19
4327.03
4324.87
4322.7
4320.55
4318.42
4316.32
4314.26
4312.23
4310.24
4308.28
4306.36
4304.48
4302.63
4300.82
4299.05
4297.31
4295.6
4293.92
4292.27
4290.65
4289.05
4287.47
4285.91
4284.38
4282.85
4281.35
4279.85
4278.37
4276.9
4275.44
4273.99
4272.54
4271.1
4269.67
4268.25
4266.84
4265.44
4264.05
4262.66
4261.29
4259.92
4258.57
4257.23
4255.89
4254.57
4253.25
4251.95
4250.66
4249.37
4248.1
4246.83
4245.58
4244.33
4243.09
4241.86
4240.64
4239.42
4238.21
4237.01
4235.81
4234.62
4233.43
4232.24
4231.05
4229.86
4228.68
4227.49
4226.31
4225.12
4223.93
4222.73
4221.52
4220.31
4219.09
4217.85
4216.6
4215.34
4214.04
4212.72
4211.37
4209.96
4208.5
4206.97
4205.33
4203.58
4201.68
4199.65
4197.54
4195.4
4193.3
4191.26
4189.29
4187.41
4185.6
4183.87
4182.17
4177.05
4170.35
4164.74
4160.85
4158.06
4155.21
4152.7
4149.76
4146.5
4143.33
4140.05
4137.18
4135.01
4133.42
4132.21
4131.29
4130.58
4130.07
4129.74
4129.58
4369.27
4369.11
4368.8
4368.37
4367.83
4367.19
4366.48
4365.71
4364.89
4364.02
4363.11
4362.16
4361.17
4360.14
4359.07
4357.97
4356.82
4355.62
4354.38
4353.09
4351.75
4350.36
4348.9
4347.4
4345.83
4344.19
4342.49
4340.73
4338.9
4337.01
4335.05
4333.03
4330.95
4328.83
4326.68
4324.52
4322.37
4320.23
4318.11
4316.02
4313.97
4311.95
4309.96
4308.01
4306.1
4304.22
4302.39
4300.58
4298.82
4297.09
4295.39
4293.72
4292.09
4290.48
4288.89
4287.32
4285.78
4284.25
4282.74
4281.24
4279.76
4278.28
4276.82
4275.36
4273.91
4272.47
4271.04
4269.61
4268.19
4266.78
4265.37
4263.98
4262.59
4261.22
4259.85
4258.5
4257.16
4255.82
4254.5
4253.19
4251.88
4250.59
4249.31
4248.03
4246.77
4245.52
4244.28
4243.04
4241.81
4240.6
4239.38
4238.18
4236.98
4235.79
4234.6
4233.41
4232.23
4231.05
4229.87
4228.7
4227.52
4226.34
4225.16
4223.98
4222.8
4221.61
4220.42
4219.22
4218.01
4216.79
4215.55
4214.3
4213.03
4211.72
4210.38
4208.98
4207.51
4205.94
4204.23
4202.31
4200.17
4197.93
4195.71
4193.59
4191.58
4189.73
4188.05
4186.58
4185.33
4183.9
4178.29
4169.65
4162.98
4158.46
4154.88
4151.8
4149.1
4146.27
4144.33
4141.44
4138.08
4134.62
4132.63
4131.33
4130.35
4129.58
4129
4128.57
4128.29
4128.15
4368.1
4367.97
4367.71
4367.33
4366.86
4366.29
4365.66
4364.95
4364.2
4363.39
4362.54
4361.65
4360.71
4359.73
4358.7
4357.63
4356.51
4355.35
4354.13
4352.86
4351.53
4350.14
4348.7
4347.18
4345.6
4343.95
4342.24
4340.45
4338.6
4336.68
4334.69
4332.65
4330.56
4328.43
4326.29
4324.14
4322
4319.88
4317.77
4315.69
4313.64
4311.63
4309.65
4307.7
4305.8
4303.93
4302.1
4300.31
4298.56
4296.84
4295.15
4293.5
4291.88
4290.28
4288.71
4287.16
4285.63
4284.11
4282.61
4281.13
4279.65
4278.19
4276.73
4275.28
4273.84
4272.4
4270.96
4269.53
4268.11
4266.7
4265.3
4263.9
4262.51
4261.14
4259.78
4258.42
4257.08
4255.75
4254.42
4253.11
4251.81
4250.52
4249.23
4247.96
4246.7
4245.45
4244.21
4242.98
4241.76
4240.54
4239.34
4238.14
4236.95
4235.76
4234.58
4233.4
4232.22
4231.05
4229.88
4228.71
4227.54
4226.38
4225.21
4224.05
4222.88
4221.71
4220.53
4219.36
4218.17
4216.99
4215.79
4214.58
4213.36
4212.11
4210.84
4209.53
4208.16
4206.7
4205.07
4203.16
4200.79
4198.3
4195.94
4193.75
4191.74
4189.99
4188.5
4187.3
4186.4
4184.89
4177.23
4166.99
4159.07
4152.96
4148.23
4144.69
4142.13
4140.24
4139.4
4136.76
4132.62
4130.34
4129.64
4128.92
4128.26
4127.7
4127.25
4126.92
4126.69
4126.58
4366.95
4366.84
4366.61
4366.29
4365.87
4365.37
4364.8
4364.17
4363.48
4362.74
4361.94
4361.1
4360.22
4359.28
4358.3
4357.27
4356.19
4355.05
4353.86
4352.61
4351.3
4349.92
4348.47
4346.95
4345.36
4343.69
4341.95
4340.13
4338.25
4336.3
4334.3
4332.24
4330.14
4328.02
4325.88
4323.74
4321.61
4319.5
4317.4
4315.33
4313.28
4311.27
4309.29
4307.36
4305.46
4303.6
4301.78
4300
4298.26
4296.55
4294.88
4293.25
4291.64
4290.06
4288.5
4286.97
4285.46
4283.96
4282.47
4281
4279.54
4278.08
4276.63
4275.19
4273.75
4272.31
4270.88
4269.45
4268.03
4266.62
4265.21
4263.81
4262.43
4261.05
4259.69
4258.33
4256.99
4255.66
4254.33
4253.02
4251.72
4250.43
4249.15
4247.88
4246.62
4245.37
4244.14
4242.91
4241.69
4240.49
4239.29
4238.09
4236.91
4235.72
4234.55
4233.38
4232.21
4231.05
4229.88
4228.73
4227.57
4226.41
4225.26
4224.11
4222.96
4221.8
4220.65
4219.5
4218.35
4217.19
4216.04
4214.87
4213.71
4212.53
4211.35
4210.14
4208.91
4207.61
4206.21
4204.48
4201.68
4198.68
4195.98
4193.71
4191.65
4189.98
4188.65
4187.66
4187.01
4182.28
4171.94
4162.01
4153.34
4146.08
4140.38
4136.6
4134.49
4133.15
4131.84
4129.25
4126.32
4126.87
4126.78
4126.46
4126.08
4125.71
4125.4
4125.15
4124.98
4124.9
4365.81
4365.71
4365.52
4365.24
4364.87
4364.43
4363.93
4363.36
4362.73
4362.05
4361.32
4360.54
4359.7
4358.82
4357.88
4356.9
4355.85
4354.75
4353.58
4352.35
4351.05
4349.68
4348.23
4346.7
4345.09
4343.4
4341.63
4339.78
4337.87
4335.9
4333.87
4331.8
4329.7
4327.58
4325.45
4323.33
4321.2
4319.09
4317
4314.93
4312.89
4310.88
4308.91
4306.97
4305.08
4303.23
4301.42
4299.65
4297.92
4296.23
4294.58
4292.96
4291.38
4289.82
4288.28
4286.77
4285.27
4283.79
4282.32
4280.86
4279.42
4277.97
4276.53
4275.1
4273.66
4272.23
4270.8
4269.37
4267.94
4266.52
4265.11
4263.71
4262.33
4260.95
4259.59
4258.23
4256.89
4255.56
4254.24
4252.92
4251.62
4250.33
4249.05
4247.79
4246.53
4245.29
4244.05
4242.83
4241.62
4240.42
4239.23
4238.04
4236.86
4235.69
4234.52
4233.35
4232.19
4231.04
4229.89
4228.74
4227.59
4226.45
4225.31
4224.17
4223.03
4221.9
4220.77
4219.64
4218.52
4217.4
4216.29
4215.17
4214.07
4212.97
4211.87
4210.78
4209.7
4208.64
4207.62
4206.66
4203.92
4200.05
4196.23
4193.01
4190.78
4189.53
4188.46
4187.65
4187.03
4178.33
4166.24
4155.75
4146.22
4137.64
4130.62
4126.84
4126.1
4126.01
4125.56
4124
4123.05
4124.09
4124.15
4124.06
4123.88
4123.67
4123.47
4123.31
4123.19
4123.13
4364.67
4364.59
4364.42
4364.18
4363.86
4363.48
4363.03
4362.53
4361.96
4361.34
4360.67
4359.95
4359.17
4358.34
4357.45
4356.51
4355.5
4354.43
4353.29
4352.08
4350.8
4349.43
4347.97
4346.43
4344.8
4343.08
4341.28
4339.41
4337.46
4335.46
4333.41
4331.33
4329.24
4327.13
4325.01
4322.89
4320.78
4318.67
4316.58
4314.51
4312.46
4310.45
4308.48
4306.55
4304.66
4302.81
4301.02
4299.26
4297.55
4295.88
4294.25
4292.65
4291.08
4289.55
4288.03
4286.54
4285.07
4283.61
4282.16
4280.72
4279.29
4277.86
4276.43
4275
4273.57
4272.14
4270.71
4269.28
4267.85
4266.42
4265.01
4263.6
4262.21
4260.84
4259.47
4258.12
4256.78
4255.45
4254.13
4252.82
4251.52
4250.22
4248.95
4247.68
4246.43
4245.19
4243.96
4242.74
4241.54
4240.34
4239.16
4237.98
4236.81
4235.64
4234.48
4233.33
4232.17
4231.03
4229.89
4228.75
4227.61
4226.48
4225.35
4224.23
4223.11
4222
4220.89
4219.79
4218.69
4217.61
4216.53
4215.47
4214.42
4213.4
4212.39
4211.42
4210.49
4209.62
4208.89
4208.35
4204.89
4199.88
4196.1
4192.55
4189.76
4187.53
4185.41
4182.99
4179.12
4169.39
4158.95
4148.55
4138.14
4127.63
4117.63
4114.03
4117.05
4119.25
4120.37
4120.15
4120.38
4121.42
4121.68
4121.74
4121.71
4121.62
4121.51
4121.42
4121.35
4121.31
4363.52
4363.45
4363.31
4363.11
4362.84
4362.51
4362.12
4361.67
4361.17
4360.62
4360.01
4359.35
4358.63
4357.85
4357.01
4356.11
4355.15
4354.11
4353
4351.81
4350.54
4349.17
4347.71
4346.16
4344.51
4342.76
4340.93
4339.02
4337.04
4335.01
4332.95
4330.86
4328.77
4326.67
4324.56
4322.46
4320.35
4318.24
4316.14
4314.05
4312
4309.98
4308.01
4306.08
4304.19
4302.36
4300.57
4298.83
4297.14
4295.49
4293.88
4292.3
4290.76
4289.25
4287.77
4286.3
4284.85
4283.42
4281.99
4280.57
4279.15
4277.74
4276.33
4274.91
4273.49
4272.06
4270.62
4269.19
4267.75
4266.31
4264.89
4263.48
4262.09
4260.71
4259.35
4258
4256.66
4255.33
4254.01
4252.7
4251.4
4250.1
4248.83
4247.56
4246.31
4245.08
4243.85
4242.65
4241.45
4240.26
4239.08
4237.91
4236.75
4235.59
4234.44
4233.29
4232.15
4231.01
4229.88
4228.75
4227.63
4226.51
4225.39
4224.29
4223.18
4222.09
4221
4219.92
4218.85
4217.8
4216.76
4215.75
4214.76
4213.8
4212.88
4212.01
4211.2
4210.48
4209.89
4209.47
4206.39
4200.66
4195.75
4191.31
4187.33
4183.58
4179.72
4175.27
4169.44
4161.15
4151.61
4141.34
4130.18
4117.11
4106.29
4104.12
4108.82
4113.57
4116.6
4117.85
4118.43
4119.08
4119.39
4119.53
4119.59
4119.58
4119.54
4119.5
4119.47
4119.45
4362.37
4362.31
4362.19
4362.02
4361.8
4361.52
4361.19
4360.81
4360.37
4359.88
4359.33
4358.73
4358.07
4357.35
4356.56
4355.71
4354.79
4353.79
4352.71
4351.54
4350.28
4348.92
4347.46
4345.89
4344.22
4342.45
4340.58
4338.63
4336.62
4334.56
4332.48
4330.38
4328.29
4326.21
4324.11
4322.02
4319.91
4317.79
4315.67
4313.57
4311.5
4309.47
4307.49
4305.56
4303.68
4301.85
4300.08
4298.35
4296.68
4295.05
4293.47
4291.92
4290.42
4288.94
4287.48
4286.04
4284.62
4283.21
4281.81
4280.41
4279.02
4277.63
4276.23
4274.82
4273.41
4271.98
4270.54
4269.09
4267.64
4266.2
4264.76
4263.34
4261.95
4260.57
4259.21
4257.87
4256.53
4255.21
4253.89
4252.57
4251.27
4249.97
4248.69
4247.43
4246.18
4244.95
4243.74
4242.54
4241.35
4240.17
4239
4237.84
4236.68
4235.54
4234.39
4233.26
4232.12
4231
4229.87
4228.75
4227.64
4226.53
4225.43
4224.34
4223.25
4222.17
4221.1
4220.04
4219
4217.98
4216.97
4216
4215.06
4214.17
4213.32
4212.53
4211.83
4211.21
4210.69
4210.25
4206.87
4200.61
4194.92
4189.64
4184.65
4179.74
4174.62
4168.93
4162.23
4154.16
4145.02
4135.01
4124.13
4112.02
4104.35
4103.38
4105.04
4109.63
4113.82
4116.06
4116.59
4116.98
4117.25
4117.42
4117.52
4117.57
4117.58
4117.58
4117.57
4117.56
4361.18
4361.14
4361.05
4360.92
4360.74
4360.51
4360.24
4359.92
4359.55
4359.12
4358.64
4358.1
4357.5
4356.84
4356.11
4355.3
4354.42
4353.46
4352.41
4351.26
4350.02
4348.67
4347.22
4345.66
4343.97
4342.18
4340.27
4338.27
4336.21
4334.11
4332
4329.89
4327.81
4325.74
4323.67
4321.58
4319.48
4317.34
4315.2
4313.06
4310.96
4308.92
4306.93
4304.99
4303.12
4301.29
4299.53
4297.82
4296.17
4294.57
4293.02
4291.51
4290.04
4288.59
4287.17
4285.77
4284.38
4283
4281.63
4280.26
4278.89
4277.51
4276.13
4274.74
4273.34
4271.91
4270.47
4269
4267.53
4266.06
4264.61
4263.18
4261.78
4260.41
4259.06
4257.73
4256.4
4255.07
4253.75
4252.43
4251.12
4249.82
4248.54
4247.28
4246.03
4244.81
4243.6
4242.41
4241.23
4240.07
4238.91
4237.76
4236.61
4235.48
4234.34
4233.21
4232.09
4230.97
4229.86
4228.75
4227.65
4226.55
4225.46
4224.38
4223.3
4222.24
4221.19
4220.15
4219.13
4218.13
4217.16
4216.22
4215.33
4214.48
4213.7
4212.99
4212.36
4211.83
4211.38
4210.82
4206.92
4200.01
4193.66
4187.68
4181.89
4176.1
4170.09
4163.6
4156.38
4148.25
4139.28
4129.57
4119.29
4108.86
4103.16
4102.6
4102.36
4106.09
4111.4
4114.31
4114.74
4114.98
4115.21
4115.39
4115.51
4115.59
4115.64
4115.66
4115.67
4115.67
4359.97
4359.94
4359.88
4359.78
4359.65
4359.48
4359.27
4359.01
4358.71
4358.36
4357.95
4357.47
4356.93
4356.33
4355.65
4354.89
4354.05
4353.13
4352.11
4351
4349.78
4348.47
4347.04
4345.49
4343.8
4341.97
4340.02
4337.96
4335.82
4333.65
4331.5
4329.38
4327.31
4325.27
4323.24
4321.18
4319.07
4316.9
4314.71
4312.52
4310.38
4308.3
4306.3
4304.37
4302.49
4300.68
4298.93
4297.24
4295.61
4294.04
4292.53
4291.06
4289.63
4288.23
4286.85
4285.48
4284.13
4282.78
4281.44
4280.1
4278.76
4277.41
4276.05
4274.68
4273.29
4271.87
4270.41
4268.92
4267.42
4265.92
4264.44
4262.99
4261.59
4260.23
4258.9
4257.57
4256.26
4254.94
4253.62
4252.29
4250.97
4249.66
4248.37
4247.11
4245.87
4244.65
4243.46
4242.28
4241.11
4239.96
4238.81
4237.67
4236.54
4235.41
4234.29
4233.17
4232.05
4230.94
4229.84
4228.74
4227.65
4226.56
4225.48
4224.41
4223.35
4222.3
4221.26
4220.24
4219.23
4218.26
4217.31
4216.4
4215.54
4214.73
4214
4213.35
4212.8
4212.35
4212.01
4211.16
4206.26
4198.85
4192.05
4185.53
4179.13
4172.69
4166.04
4159.01
4151.43
4143.19
4134.27
4124.7
4114.62
4105.38
4101.82
4101.82
4101.65
4104.28
4109.22
4111.84
4112.79
4113
4113.22
4113.4
4113.55
4113.65
4113.72
4113.76
4113.78
4113.79
4358.72
4358.7
4358.66
4358.6
4358.52
4358.41
4358.27
4358.09
4357.86
4357.58
4357.24
4356.83
4356.36
4355.81
4355.18
4354.47
4353.68
4352.8
4351.82
4350.76
4349.6
4348.33
4346.94
4345.42
4343.74
4341.88
4339.86
4337.7
4335.45
4333.19
4330.95
4328.81
4326.77
4324.79
4322.83
4320.82
4318.71
4316.5
4314.21
4311.92
4309.72
4307.62
4305.61
4303.68
4301.81
4300
4298.26
4296.59
4294.99
4293.46
4292
4290.58
4289.2
4287.84
4286.51
4285.19
4283.87
4282.56
4281.25
4279.94
4278.63
4277.31
4275.98
4274.64
4273.27
4271.85
4270.38
4268.86
4267.3
4265.75
4264.23
4262.76
4261.36
4260.02
4258.72
4257.42
4256.12
4254.81
4253.48
4252.15
4250.81
4249.48
4248.18
4246.91
4245.67
4244.47
4243.29
4242.13
4240.98
4239.84
4238.71
4237.58
4236.46
4235.34
4234.23
4233.12
4232.01
4230.91
4229.81
4228.72
4227.64
4226.56
4225.49
4224.44
4223.39
4222.35
4221.32
4220.31
4219.32
4218.35
4217.42
4216.53
4215.69
4214.92
4214.22
4213.62
4213.12
4212.75
4212.49
4210.08
4203.99
4197.09
4190.14
4183.26
4176.4
4169.48
4162.38
4154.96
4147.14
4138.8
4129.91
4120.35
4109.85
4102.33
4101.14
4101.19
4101.15
4102.73
4106.87
4109.51
4110.69
4111
4111.26
4111.47
4111.63
4111.74
4111.82
4111.87
4111.9
4111.91
4357.41
4357.41
4357.4
4357.38
4357.35
4357.31
4357.24
4357.14
4356.99
4356.79
4356.52
4356.19
4355.78
4355.28
4354.71
4354.05
4353.31
4352.48
4351.57
4350.58
4349.48
4348.28
4346.96
4345.49
4343.83
4341.94
4339.84
4337.52
4335.09
4332.68
4330.3
4328.14
4326.16
4324.3
4322.46
4320.56
4318.47
4316.16
4313.72
4311.25
4308.95
4306.83
4304.85
4302.94
4301.08
4299.26
4297.52
4295.86
4294.3
4292.82
4291.41
4290.05
4288.73
4287.44
4286.16
4284.88
4283.61
4282.34
4281.06
4279.79
4278.51
4277.22
4275.93
4274.63
4273.29
4271.89
4270.41
4268.82
4267.19
4265.55
4263.96
4262.46
4261.08
4259.78
4258.52
4257.27
4255.99
4254.69
4253.36
4252
4250.63
4249.27
4247.95
4246.68
4245.45
4244.27
4243.11
4241.97
4240.84
4239.71
4238.59
4237.48
4236.37
4235.26
4234.16
4233.06
4231.96
4230.87
4229.78
4228.7
4227.62
4226.56
4225.5
4224.45
4223.41
4222.38
4221.36
4220.36
4219.37
4218.41
4217.49
4216.61
4215.78
4215.03
4214.35
4213.78
4213.32
4212.99
4212.77
4209.41
4202.53
4195.39
4188.17
4180.96
4173.74
4166.46
4159.02
4151.34
4143.35
4134.98
4126.2
4116.96
4107.14
4101.24
4100.63
4100.65
4100.67
4101.98
4105.38
4107.66
4108.63
4109.05
4109.35
4109.58
4109.75
4109.87
4109.95
4110.01
4110.04
4110.05
4356.04
4356.05
4356.07
4356.1
4356.13
4356.16
4356.18
4356.17
4356.11
4355.99
4355.8
4355.53
4355.19
4354.75
4354.23
4353.63
4352.96
4352.2
4351.37
4350.46
4349.46
4348.35
4347.11
4345.73
4344.16
4342.19
4340.03
4337.44
4334.69
4332.15
4329.43
4327.28
4325.44
4323.78
4322.17
4320.48
4318.45
4315.96
4313.24
4310.4
4308.01
4305.92
4304
4302.14
4300.29
4298.45
4296.69
4295.05
4293.53
4292.12
4290.78
4289.49
4288.24
4287.02
4285.8
4284.58
4283.35
4282.12
4280.88
4279.63
4278.39
4277.14
4275.9
4274.65
4273.38
4272.03
4270.53
4268.83
4267.08
4265.32
4263.6
4262.06
4260.71
4259.49
4258.33
4257.15
4255.89
4254.59
4253.26
4251.88
4250.45
4249.01
4247.67
4246.4
4245.2
4244.04
4242.91
4241.8
4240.69
4239.58
4238.48
4237.38
4236.28
4235.19
4234.09
4233
4231.91
4230.83
4229.75
4228.67
4227.6
4226.54
4225.49
4224.46
4223.43
4222.41
4221.39
4220.39
4219.4
4218.44
4217.51
4216.63
4215.8
4215.05
4214.39
4213.83
4213.39
4213.08
4212.88
4208.97
4201.35
4193.75
4186.2
4178.68
4171.15
4163.58
4155.9
4148.03
4139.93
4131.57
4122.96
4114.16
4105.34
4100.58
4100.12
4100.13
4100.18
4100.35
4103.37
4106.07
4106.77
4107.21
4107.52
4107.75
4107.91
4108.03
4108.11
4108.16
4108.19
4108.21
4354.58
4354.61
4354.66
4354.74
4354.85
4354.96
4355.08
4355.17
4355.21
4355.18
4355.07
4354.87
4354.59
4354.22
4353.77
4353.24
4352.65
4351.98
4351.24
4350.42
4349.52
4348.52
4347.4
4346.17
4344.87
4343.2
4340.99
4337.13
4333.46
4330.59
4327.97
4326.12
4324.55
4323.19
4321.97
4320.73
4319.08
4316.07
4312.16
4309.07
4306.78
4304.82
4303.1
4301.35
4299.49
4297.57
4295.74
4294.11
4292.66
4291.33
4290.09
4288.9
4287.74
4286.58
4285.43
4284.27
4283.1
4281.91
4280.7
4279.48
4278.27
4277.06
4275.87
4274.7
4273.54
4272.31
4270.85
4268.91
4266.96
4265.05
4263.05
4261.45
4260.21
4259.15
4258.16
4257.11
4255.84
4254.51
4253.22
4251.8
4250.29
4248.67
4247.3
4246.06
4244.89
4243.78
4242.7
4241.62
4240.53
4239.45
4238.36
4237.27
4236.19
4235.11
4234.02
4232.94
4231.86
4230.78
4229.7
4228.63
4227.57
4226.52
4225.48
4224.45
4223.43
4222.42
4221.41
4220.41
4219.41
4218.43
4217.49
4216.59
4215.75
4214.98
4214.31
4213.76
4213.34
4213.06
4212.84
4208.44
4200.14
4192.08
4184.19
4176.39
4168.62
4160.82
4152.95
4144.95
4136.78
4128.42
4119.9
4111.38
4103.47
4099.76
4099.53
4099.57
4099.66
4099.81
4102.3
4104.7
4105.14
4105.5
4105.78
4105.98
4106.13
4106.23
4106.3
4106.34
4106.36
4106.38
4353.03
4353.08
4353.16
4353.29
4353.47
4353.69
4353.93
4354.14
4354.3
4354.37
4354.34
4354.22
4354
4353.71
4353.33
4352.89
4352.38
4351.81
4351.16
4350.45
4349.67
4348.81
4347.8
4346.81
4345.55
4342.49
4339.03
4335.37
4332.23
4329.29
4326.53
4324.63
4323.46
4322.48
4321.77
4321.11
4318.91
4315.11
4311.05
4307.43
4305.14
4303.5
4302.23
4300.65
4298.75
4296.6
4294.58
4292.99
4291.66
4290.47
4289.35
4288.27
4287.21
4286.15
4285.08
4283.99
4282.86
4281.71
4280.53
4279.34
4278.14
4276.95
4275.81
4274.74
4273.76
4272.82
4271.81
4269.21
4266.1
4263.69
4261.84
4260.51
4259.51
4258.73
4258.04
4257.38
4255.82
4254.22
4253.42
4251.87
4249.63
4247.83
4246.83
4245.64
4244.52
4243.51
4242.48
4241.44
4240.38
4239.31
4238.24
4237.17
4236.1
4235.03
4233.96
4232.88
4231.81
4230.73
4229.66
4228.59
4227.53
4226.48
4225.45
4224.44
4223.44
4222.44
4221.43
4220.42
4219.39
4218.39
4217.42
4216.49
4215.62
4214.82
4214.12
4213.56
4213.14
4212.88
4212.59
4207.58
4198.68
4190.25
4182.09
4174.06
4166.1
4158.14
4150.14
4142.04
4133.82
4125.43
4116.84
4107.98
4100.9
4098.75
4098.88
4098.97
4099.1
4099.29
4101.44
4103.29
4103.6
4103.88
4104.11
4104.27
4104.39
4104.46
4104.51
4104.54
4104.55
4104.55
4351.37
4351.43
4351.54
4351.73
4351.99
4352.33
4352.72
4353.09
4353.38
4353.56
4353.62
4353.58
4353.45
4353.23
4352.95
4352.59
4352.17
4351.69
4351.15
4350.54
4349.91
4349.23
4348.35
4345.7
4342.68
4338.97
4335.73
4332.7
4329.95
4327.39
4324.94
4323.38
4322.1
4321.49
4321.14
4320.78
4318.13
4313.58
4309.3
4305.44
4302.48
4301.63
4301.19
4299.99
4297.84
4295.09
4292.92
4291.6
4290.53
4289.53
4288.57
4287.63
4286.69
4285.74
4284.75
4283.73
4282.66
4281.54
4280.38
4279.19
4277.99
4276.81
4275.69
4274.7
4273.93
4273.31
4271.63
4268.48
4265.51
4262.95
4260.61
4259.1
4258.59
4258.23
4257.7
4257.04
4255.5
4253.57
4252.36
4251.06
4249.37
4247.8
4246.21
4244.81
4244.05
4243.24
4242.29
4241.28
4240.24
4239.18
4238.12
4237.06
4236
4234.95
4233.89
4232.82
4231.76
4230.68
4229.6
4228.53
4227.47
4226.43
4225.41
4224.41
4223.43
4222.45
4221.46
4220.43
4219.36
4218.31
4217.31
4216.35
4215.42
4214.55
4213.8
4213.2
4212.77
4212.51
4212.16
4206.05
4196.75
4188.15
4179.84
4171.68
4163.59
4155.51
4147.42
4139.26
4131.02
4122.64
4114.06
4105.11
4099.1
4098.06
4098.19
4098.32
4098.48
4098.65
4100.15
4101.83
4102.07
4102.31
4102.49
4102.62
4102.69
4102.73
4102.74
4102.74
4102.74
4102.74
4349.59
4349.65
4349.78
4350.01
4350.35
4350.84
4351.45
4352.03
4352.48
4352.78
4352.95
4353
4352.95
4352.82
4352.61
4352.34
4352.02
4351.63
4351.19
4350.65
4350.2
4349.15
4345.94
4341.51
4338.09
4334.97
4332.22
4329.74
4327.48
4325.39
4323.49
4322.01
4320.87
4320.28
4320.13
4319.89
4316.85
4311.8
4307.11
4302.35
4299.28
4299.98
4300.19
4298.59
4294.92
4291.58
4290.66
4290.03
4289.32
4288.56
4287.78
4286.99
4286.18
4285.34
4284.46
4283.52
4282.5
4281.41
4280.27
4279.06
4277.82
4276.6
4275.45
4274.43
4273.69
4273.19
4271.17
4267.65
4264.46
4261.57
4258.82
4257.4
4257.43
4257.58
4257.08
4255.91
4253.9
4251.97
4250.96
4250.06
4248.84
4247.74
4246.12
4244.65
4243.93
4243.11
4242.15
4241.17
4240.12
4239.04
4237.99
4236.96
4235.91
4234.86
4233.82
4232.77
4231.71
4230.63
4229.55
4228.46
4227.38
4226.35
4225.35
4224.37
4223.43
4222.49
4221.53
4220.47
4219.32
4218.18
4217.17
4216.17
4215.15
4214.17
4213.33
4212.67
4212.21
4211.95
4209.62
4202.39
4194.12
4185.76
4177.45
4169.23
4161.05
4152.9
4144.75
4136.57
4128.35
4120.06
4111.65
4103.03
4097.84
4097.27
4097.45
4097.64
4097.88
4098.15
4098.8
4100.15
4100.55
4100.8
4100.94
4101.01
4101.03
4101.01
4100.99
4100.96
4100.93
4100.92
4347.68
4347.73
4347.86
4348.09
4348.49
4349.14
4350.11
4350.99
4351.65
4352.09
4352.36
4352.5
4352.52
4352.46
4352.33
4352.15
4351.91
4351.64
4351.32
4350.71
4348.02
4344.7
4340.26
4336.33
4333.19
4330.61
4328.44
4326.55
4324.84
4323.19
4321.61
4320.22
4319.65
4318.52
4318.8
4318.83
4314.96
4309.65
4305
4300.53
4298.28
4298.87
4299.22
4296.43
4291.79
4288.84
4288.88
4288.62
4288.16
4287.6
4287
4286.36
4285.7
4285
4284.24
4283.38
4282.41
4281.35
4280.21
4278.95
4277.63
4276.32
4275.07
4273.87
4273.01
4272.48
4270.27
4266.5
4263.13
4260.03
4257.06
4255.5
4255.62
4255.46
4255.01
4253.71
4252.27
4251.17
4250.34
4249.49
4248.6
4247.98
4246.74
4245.25
4244.33
4243.15
4241.98
4241.08
4239.94
4238.8
4237.85
4236.87
4235.8
4234.78
4233.77
4232.73
4231.67
4230.6
4229.5
4228.37
4227.25
4226.26
4225.26
4224.3
4223.41
4222.54
4221.72
4220.66
4219.21
4217.92
4217.03
4216
4214.84
4213.64
4212.69
4211.93
4211.42
4211.14
4207.49
4199.76
4191.6
4183.3
4174.99
4166.73
4158.5
4150.29
4142.11
4133.92
4125.75
4117.6
4109.45
4101.28
4096.76
4096.46
4096.66
4096.92
4097.24
4097.59
4098.05
4098.79
4099.19
4099.39
4099.47
4099.45
4099.39
4099.31
4099.23
4099.16
4099.12
4099.09
4345.64
4345.67
4345.76
4345.93
4346.27
4347.01
4348.76
4350.11
4350.98
4351.55
4351.9
4352.09
4352.17
4352.17
4352.11
4351.99
4351.84
4351.68
4349.29
4346.35
4342.02
4338.12
4334.07
4330.37
4327.74
4325.84
4324.38
4323.18
4322.15
4320.93
4319.53
4318.12
4317.04
4315.63
4315.88
4315.21
4311.15
4306.86
4302.7
4298.69
4296.74
4296.97
4296.49
4293.63
4289.82
4287.65
4287.59
4287.41
4287.09
4286.7
4286.25
4285.76
4285.26
4284.71
4284.1
4283.37
4282.41
4281.36
4280.27
4278.9
4277.35
4275.98
4274.66
4272.98
4271.79
4271.15
4268.83
4264.95
4261.52
4258.37
4255.36
4253.84
4253.76
4253.23
4253.05
4252.62
4251.65
4250.96
4250.31
4249.43
4248.57
4247.8
4247.1
4246.19
4244.49
4242.71
4241.36
4240.24
4239.09
4237.97
4236.93
4235.91
4234.87
4233.85
4232.84
4231.83
4230.8
4229.75
4228.59
4227.65
4226.9
4226.08