/*--------------------------------*- C++ -*----------------------------------*\
| =========                 |                                                 |
| \\      /  F ield         | OpenFOAM: The Open Source CFD Toolbox           |
|  \\    /   O peration     | Version:  2.1.0                                 |
|   \\  /    A nd           | Web:      www.OpenFOAM.org                      |
|    \\/     M anipulation  |                                                 |
\*---------------------------------------------------------------------------*/
FoamFile
{
    version     2.0;
    format      ascii;
    class       volScalarField;
    location    "12045";
    object      kr_o;
}
// * * * * * * * * * * * * * * * * * * * * * * * * * * * * * * * * * * * * * //

dimensions      [0 0 0 0 0 0 0];

internalField   nonuniform List<scalar> 
15000
(
1.15392e-07
4.69883e-05
0.000613019
0.00233328
0.00517705
0.0088389
0.0130849
0.0177643
0.0227721
0.0280263
0.0334602
0.0390175
0.044651
0.0503204
0.0559938
0.061648
0.0672672
0.072833
0.078326
0.0837308
0.0890363
0.0942349
0.0993215
0.104294
0.109155
0.113908
0.118556
0.123106
0.127563
0.131936
0.136233
0.140461
0.144627
0.148739
0.152805
0.156833
0.16083
0.164805
0.168765
0.172717
0.176671
0.180634
0.184617
0.188627
0.192672
0.196763
0.200909
0.205123
0.209415
0.213799
0.218292
0.222912
0.227682
0.232631
0.237795
0.243218
0.248962
0.255108
0.261768
0.269102
0.277349
0.286877
0.298269
0.312502
0.331259
0.357461
0.395498
0.44783
0.503306
0.540178
0.555651
0.560586
0.561987
0.562366
0.562466
0.562491
0.562498
0.562499
0.5625
0.5625
0.5625
0.5625
0.5625
0.5625
0.5625
0.5625
0.5625
0.5625
0.5625
0.5625
0.5625
0.5625
0.5625
0.5625
0.5625
0.5625
0.5625
0.5625
0.5625
0.5625
0.5625
0.5625
0.5625
0.5625
0.5625
0.5625
0.5625
0.5625
0.5625
0.5625
0.5625
0.5625
0.5625
0.5625
0.5625
0.5625
0.5625
0.5625
0.5625
0.5625
0.5625
0.5625
0.5625
0.5625
0.5625
0.5625
0.5625
0.5625
0.5625
0.5625
0.5625
0.5625
0.5625
0.5625
0.5625
0.5625
0.5625
0.5625
0.5625
0.5625
0.5625
0.5625
0.5625
0.5625
0.5625
0.5625
0.5625
0.5625
0.5625
0.5625
4.66215e-05
0.000365697
0.00150835
0.0037015
0.0067812
0.0105345
0.0148044
0.0194776
0.0244652
0.029694
0.0351019
0.0406354
0.0462479
0.0519005
0.057563
0.0632127
0.0688319
0.074399
0.0798949
0.0853044
0.0906157
0.0958196
0.100911
0.105888
0.110754
0.115511
0.120162
0.124713
0.129173
0.133548
0.137846
0.142074
0.14624
0.150351
0.154416
0.158442
0.162437
0.16641
0.170368
0.174319
0.178273
0.182239
0.186224
0.190238
0.194291
0.198392
0.202553
0.206786
0.211104
0.215522
0.220057
0.224732
0.22957
0.234604
0.239873
0.245429
0.25134
0.257698
0.26463
0.272322
0.281051
0.291244
0.303591
0.319245
0.340195
0.369782
0.412313
0.467168
0.517882
0.546799
0.557813
0.561199
0.562151
0.562409
0.562476
0.562494
0.562499
0.5625
0.5625
0.5625
0.5625
0.5625
0.5625
0.5625
0.5625
0.5625
0.5625
0.5625
0.5625
0.5625
0.5625
0.5625
0.5625
0.5625
0.5625
0.5625
0.5625
0.5625
0.5625
0.5625
0.5625
0.5625
0.5625
0.5625
0.5625
0.5625
0.5625
0.5625
0.5625
0.5625
0.5625
0.5625
0.5625
0.5625
0.5625
0.5625
0.5625
0.5625
0.5625
0.5625
0.5625
0.5625
0.5625
0.5625
0.5625
0.5625
0.5625
0.5625
0.5625
0.5625
0.5625
0.5625
0.5625
0.5625
0.5625
0.5625
0.5625
0.5625
0.5625
0.5625
0.5625
0.5625
0.5625
0.5625
0.5625
0.5625
0.5625
0.5625
0.5625
0.5625
0.000604806
0.00149836
0.00323036
0.00578349
0.00902616
0.0128327
0.0171013
0.021747
0.0266958
0.031883
0.037251
0.0427481
0.0483293
0.0539572
0.0596019
0.0652412
0.0708542
0.0764181
0.0819129
0.0873224
0.092633
0.0978353
0.102924
0.107899
0.112761
0.117512
0.122156
0.1267
0.131151
0.135516
0.139802
0.144018
0.148171
0.152269
0.15632
0.160331
0.164312
0.16827
0.172213
0.176151
0.180092
0.184045
0.18802
0.192026
0.196074
0.200175
0.204341
0.208585
0.212921
0.217367
0.221941
0.226667
0.231571
0.236689
0.242065
0.247758
0.253842
0.260421
0.267643
0.27572
0.284977
0.295917
0.309361
0.326697
0.35031
0.383995
0.431373
0.487014
0.530683
0.551992
0.559437
0.561655
0.562274
0.562441
0.562485
0.562496
0.562499
0.5625
0.5625
0.5625
0.5625
0.5625
0.5625
0.5625
0.5625
0.5625
0.5625
0.5625
0.5625
0.5625
0.5625
0.5625
0.5625
0.5625
0.5625
0.5625
0.5625
0.5625
0.5625
0.5625
0.5625
0.5625
0.5625
0.5625
0.5625
0.5625
0.5625
0.5625
0.5625
0.5625
0.5625
0.5625
0.5625
0.5625
0.5625
0.5625
0.5625
0.5625
0.5625
0.5625
0.5625
0.5625
0.5625
0.5625
0.5625
0.5625
0.5625
0.5625
0.5625
0.5625
0.5625
0.5625
0.5625
0.5625
0.5625
0.5625
0.5625
0.5625
0.5625
0.5625
0.5625
0.5625
0.5625
0.5625
0.5625
0.5625
0.5625
0.5625
0.5625
0.5625
0.00229349
0.0036594
0.00575208
0.00850476
0.0118324
0.015656
0.0199038
0.0245088
0.0294087
0.0345455
0.0398656
0.0453196
0.0508641
0.0564631
0.0620875
0.0677148
0.0733202
0.0788793
0.0843705
0.0897759
0.0950812
0.100277
0.105359
0.110325
0.115175
0.119913
0.124542
0.129069
0.1335
0.137845
0.142109
0.146301
0.150429
0.154501
0.158526
0.162511
0.166464
0.170394
0.17431
0.17822
0.182134
0.186062
0.190014
0.194001
0.198034
0.202124
0.206285
0.210532
0.21488
0.219348
0.223956
0.228729
0.233699
0.238904
0.244393
0.25023
0.2565
0.263322
0.270864
0.279378
0.289245
0.301068
0.315844
0.335272
0.362233
0.400863
0.452802
0.506248
0.541104
0.555801
0.560584
0.561975
0.56236
0.562463
0.562491
0.562498
0.562499
0.5625
0.5625
0.5625
0.5625
0.5625
0.5625
0.5625
0.5625
0.5625
0.5625
0.5625
0.5625
0.5625
0.5625
0.5625
0.5625
0.5625
0.5625
0.5625
0.5625
0.5625
0.5625
0.5625
0.5625
0.5625
0.5625
0.5625
0.5625
0.5625
0.5625
0.5625
0.5625
0.5625
0.5625
0.5625
0.5625
0.5625
0.5625
0.5625
0.5625
0.5625
0.5625
0.5625
0.5625
0.5625
0.5625
0.5625
0.5625
0.5625
0.5625
0.5625
0.5625
0.5625
0.5625
0.5625
0.5625
0.5625
0.5625
0.5625
0.5625
0.5625
0.5625
0.5625
0.5625
0.5625
0.5625
0.5625
0.5625
0.5625
0.5625
0.5625
0.5625
0.5625
0.00507054
0.00667479
0.00893272
0.0117718
0.0151274
0.0189403
0.0231531
0.0277099
0.0325564
0.0376399
0.0429096
0.0483189
0.0538266
0.0593979
0.0650051
0.0706225
0.0762217
0.0817761
0.0872625
0.0926619
0.0979599
0.103147
0.108218
0.11317
0.118004
0.122722
0.127328
0.131829
0.136233
0.140546
0.144777
0.148935
0.153027
0.157063
0.161049
0.164995
0.168908
0.172798
0.176673
0.180542
0.184417
0.188307
0.192224
0.196178
0.200184
0.204253
0.2084
0.212641
0.216995
0.221479
0.226117
0.230938
0.235975
0.241271
0.246881
0.252876
0.259354
0.266451
0.274366
0.283396
0.293999
0.306913
0.323372
0.345494
0.376739
0.421084
0.476002
0.523465
0.548958
0.558433
0.561355
0.562188
0.562417
0.562478
0.562494
0.562499
0.5625
0.5625
0.5625
0.5625
0.5625
0.5625
0.5625
0.5625
0.5625
0.5625
0.5625
0.5625
0.5625
0.5625
0.5625
0.5625
0.5625
0.5625
0.5625
0.5625
0.5625
0.5625
0.5625
0.5625
0.5625
0.5625
0.5625
0.5625
0.5625
0.5625
0.5625
0.5625
0.5625
0.5625
0.5625
0.5625
0.5625
0.5625
0.5625
0.5625
0.5625
0.5625
0.5625
0.5625
0.5625
0.5625
0.5625
0.5625
0.5625
0.5625
0.5625
0.5625
0.5625
0.5625
0.5625
0.5625
0.5625
0.5625
0.5625
0.5625
0.5625
0.5625
0.5625
0.5625
0.5625
0.5625
0.5625
0.5625
0.5625
0.5625
0.5625
0.5625
0.5625
0.5625
0.00862234
0.0103223
0.0126378
0.015498
0.0188457
0.022629
0.0267983
0.0313043
0.0360977
0.0411293
0.0463515
0.0517203
0.0571966
0.0627474
0.0683446
0.073957
0.0795534
0.0851053
0.0905883
0.0959831
0.101275
0.106453
0.111512
0.116448
0.121262
0.125955
0.130532
0.135
0.139366
0.143639
0.147828
0.151941
0.155988
0.159975
0.163912
0.167807
0.171668
0.175504
0.179325
0.183141
0.186962
0.1908
0.194668
0.198578
0.202544
0.206581
0.210703
0.21493
0.21928
0.223775
0.228442
0.23331
0.238418
0.243814
0.249558
0.255732
0.26245
0.269871
0.278234
0.287896
0.299422
0.313735
0.332401
0.358085
0.39478
0.444991
0.499392
0.537455
0.55444
0.560153
0.561847
0.562323
0.562453
0.562488
0.562497
0.562499
0.5625
0.5625
0.5625
0.5625
0.5625
0.5625
0.5625
0.5625
0.5625
0.5625
0.5625
0.5625
0.5625
0.5625
0.5625
0.5625
0.5625
0.5625
0.5625
0.5625
0.5625
0.5625
0.5625
0.5625
0.5625
0.5625
0.5625
0.5625
0.5625
0.5625
0.5625
0.5625
0.5625
0.5625
0.5625
0.5625
0.5625
0.5625
0.5625
0.5625
0.5625
0.5625
0.5625
0.5625
0.5625
0.5625
0.5625
0.5625
0.5625
0.5625
0.5625
0.5625
0.5625
0.5625
0.5625
0.5625
0.5625
0.5625
0.5625
0.5625
0.5625
0.5625
0.5625
0.5625
0.5625
0.5625
0.5625
0.5625
0.5625
0.5625
0.5625
0.5625
0.5625
0.5625
0.0127066
0.0144365
0.0167582
0.0196058
0.0229257
0.0266702
0.0307938
0.0352513
0.0399965
0.0449828
0.0501658
0.0555039
0.0609601
0.0665029
0.0720995
0.0777144
0.0833142
0.0888693
0.0943545
0.0997499
0.105039
0.110212
0.11526
0.120181
0.124972
0.129637
0.134179
0.138608
0.142929
0.147154
0.151291
0.15535
0.15934
0.163269
0.167146
0.170978
0.174775
0.178546
0.182299
0.186047
0.1898
0.193572
0.197377
0.201228
0.20514
0.20913
0.213217
0.217419
0.221758
0.226259
0.230951
0.235868
0.241053
0.246559
0.252456
0.25884
0.265843
0.273659
0.282577
0.293042
0.305767
0.321938
0.343584
0.374045
0.417362
0.471902
0.520606
0.547684
0.557991
0.561216
0.562146
0.562405
0.562475
0.562493
0.562498
0.5625
0.5625
0.5625
0.5625
0.5625
0.5625
0.5625
0.5625
0.5625
0.5625
0.5625
0.5625
0.5625
0.5625
0.5625
0.5625
0.5625
0.5625
0.5625
0.5625
0.5625
0.5625
0.5625
0.5625
0.5625
0.5625
0.5625
0.5625
0.5625
0.5625
0.5625
0.5625
0.5625
0.5625
0.5625
0.5625
0.5625
0.5625
0.5625
0.5625
0.5625
0.5625
0.5625
0.5625
0.5625
0.5625
0.5625
0.5625
0.5625
0.5625
0.5625
0.5625
0.5625
0.5625
0.5625
0.5625
0.5625
0.5625
0.5625
0.5625
0.5625
0.5625
0.5625
0.5625
0.5625
0.5625
0.5625
0.5625
0.5625
0.5625
0.5625
0.5625
0.5625
0.5625
0.5625
0.0171651
0.0188972
0.0212036
0.0240243
0.0273096
0.0310148
0.0350973
0.039514
0.044221
0.0491746
0.0543325
0.0596558
0.0651098
0.07066
0.0762683
0.0818966
0.0875102
0.0930786
0.098576
0.103981
0.109276
0.114449
0.119493
0.1244
0.129171
0.133807
0.138312
0.142695
0.146965
0.151132
0.155208
0.159204
0.163128
0.166989
0.170795
0.174555
0.178276
0.181967
0.185639
0.189304
0.192974
0.196664
0.200388
0.204163
0.208006
0.211936
0.215972
0.220137
0.224455
0.228956
0.23367
0.238638
0.243908
0.24954
0.255618
0.262253
0.269606
0.277917
0.287547
0.299066
0.313401
0.332122
0.357892
0.394695
0.445002
0.499429
0.53745
0.554412
0.560132
0.561837
0.562319
0.562452
0.562487
0.562497
0.562499
0.5625
0.5625
0.5625
0.5625
0.5625
0.5625
0.5625
0.5625
0.5625
0.5625
0.5625
0.5625
0.5625
0.5625
0.5625
0.5625
0.5625
0.5625
0.5625
0.5625
0.5625
0.5625
0.5625
0.5625
0.5625
0.5625
0.5625
0.5625
0.5625
0.5625
0.5625
0.5625
0.5625
0.5625
0.5625
0.5625
0.5625
0.5625
0.5625
0.5625
0.5625
0.5625
0.5625
0.5625
0.5625
0.5625
0.5625
0.5625
0.5625
0.5625
0.5625
0.5625
0.5625
0.5625
0.5625
0.5625
0.5625
0.5625
0.5625
0.5625
0.5625
0.5625
0.5625
0.5625
0.5625
0.5625
0.5625
0.5625
0.5625
0.5625
0.5625
0.5625
0.5625
0.5625
0.5625
0.0218863
0.023611
0.0258964
0.0286889
0.0319429
0.0356165
0.039669
0.044059
0.0487445
0.0536842
0.0588382
0.0641699
0.0696438
0.0752195
0.0808558
0.0865131
0.0921557
0.0977522
0.103276
0.108705
0.114019
0.119205
0.124254
0.129157
0.133913
0.138521
0.142988
0.147322
0.151533
0.155635
0.159642
0.163564
0.167413
0.171197
0.174923
0.178599
0.182232
0.185832
0.189407
0.192973
0.196541
0.20013
0.203754
0.207434
0.211188
0.215038
0.219007
0.22312
0.227406
0.231898
0.236632
0.241654
0.247019
0.2528
0.259094
0.266038
0.273834
0.282784
0.293358
0.306306
0.32288
0.345207
0.376749
0.421428
0.476506
0.523776
0.549026
0.558419
0.561336
0.562178
0.562413
0.562477
0.562494
0.562498
0.5625
0.5625
0.5625
0.5625
0.5625
0.5625
0.5625
0.5625
0.5625
0.5625
0.5625
0.5625
0.5625
0.5625
0.5625
0.5625
0.5625
0.5625
0.5625
0.5625
0.5625
0.5625
0.5625
0.5625
0.5625
0.5625
0.5625
0.5625
0.5625
0.5625
0.5625
0.5625
0.5625
0.5625
0.5625
0.5625
0.5625
0.5625
0.5625
0.5625
0.5625
0.5625
0.5625
0.5625
0.5625
0.5625
0.5625
0.5625
0.5625
0.5625
0.5625
0.5625
0.5625
0.5625
0.5625
0.5625
0.5625
0.5625
0.5625
0.5625
0.5625
0.5625
0.5625
0.5625
0.5625
0.5625
0.5625
0.5625
0.5625
0.5625
0.5625
0.5625
0.5625
0.5625
0.5625
0.5625
0.0267827
0.0284997
0.030768
0.0335401
0.0367747
0.0404321
0.0444731
0.0488577
0.0535458
0.0584982
0.0636776
0.0690474
0.0745657
0.0801892
0.0858746
0.0915814
0.0972733
0.102919
0.10849
0.113963
0.119317
0.124537
0.12961
0.134525
0.139277
0.143866
0.148296
0.152577
0.156723
0.160751
0.164677
0.168517
0.172281
0.175979
0.179617
0.1832
0.186734
0.190228
0.193691
0.197137
0.200583
0.204047
0.207548
0.211108
0.214749
0.218496
0.222376
0.226418
0.230657
0.235128
0.239878
0.244957
0.250433
0.256391
0.262951
0.270286
0.278657
0.288461
0.300327
0.315286
0.335082
0.362635
0.40205
0.454597
0.507749
0.541748
0.555951
0.560596
0.561967
0.562354
0.562461
0.56249
0.562497
0.562499
0.5625
0.5625
0.5625
0.5625
0.5625
0.5625
0.5625
0.5625
0.5625
0.5625
0.5625
0.5625
0.5625
0.5625
0.5625
0.5625
0.5625
0.5625
0.5625
0.5625
0.5625
0.5625
0.5625
0.5625
0.5625
0.5625
0.5625
0.5625
0.5625
0.5625
0.5625
0.5625
0.5625
0.5625
0.5625
0.5625
0.5625
0.5625
0.5625
0.5625
0.5625
0.5625
0.5625
0.5625
0.5625
0.5625
0.5625
0.5625
0.5625
0.5625
0.5625
0.5625
0.5625
0.5625
0.5625
0.5625
0.5625
0.5625
0.5625
0.5625
0.5625
0.5625
0.5625
0.5625
0.5625
0.5625
0.5625
0.5625
0.5625
0.5625
0.5625
0.5625
0.5625
0.5625
0.5625
0.5625
0.0317815
0.0334955
0.0357571
0.0385242
0.0417588
0.0454231
0.049479
0.0538878
0.0586115
0.0636131
0.0688551
0.0742945
0.0798863
0.085585
0.0913461
0.0971287
0.102897
0.10862
0.114269
0.119817
0.125244
0.13053
0.135657
0.140611
0.145382
0.149966
0.154366
0.158593
0.162667
0.166609
0.170442
0.174187
0.177857
0.181461
0.185004
0.188486
0.191911
0.195284
0.198616
0.201921
0.205218
0.208528
0.211876
0.215285
0.218781
0.222395
0.226157
0.230101
0.234269
0.238706
0.243463
0.248604
0.254209
0.260383
0.26728
0.275127
0.28427
0.295252
0.308955
0.326851
0.351434
0.386557
0.435429
0.491124
0.532981
0.552751
0.559611
0.561682
0.562274
0.562439
0.562484
0.562496
0.562499
0.5625
0.5625
0.5625
0.5625
0.5625
0.5625
0.5625
0.5625
0.5625
0.5625
0.5625
0.5625
0.5625
0.5625
0.5625
0.5625
0.5625
0.5625
0.5625
0.5625
0.5625
0.5625
0.5625
0.5625
0.5625
0.5625
0.5625
0.5625
0.5625
0.5625
0.5625
0.5625
0.5625
0.5625
0.5625
0.5625
0.5625
0.5625
0.5625
0.5625
0.5625
0.5625
0.5625
0.5625
0.5625
0.5625
0.5625
0.5625
0.5625
0.5625
0.5625
0.5625
0.5625
0.5625
0.5625
0.5625
0.5625
0.5625
0.5625
0.5625
0.5625
0.5625
0.5625
0.5625
0.5625
0.5625
0.5625
0.5625
0.5625
0.5625
0.5625
0.5625
0.5625
0.5625
0.5625
0.5625
0.5625
0.0368187
0.0385384
0.0408091
0.0435932
0.0468548
0.0505573
0.0546634
0.0591363
0.0639397
0.0690357
0.07438
0.0799257
0.0856257
0.0914328
0.0973028
0.103196
0.109079
0.114919
0.120688
0.126358
0.131906
0.137308
0.142539
0.147578
0.152408
0.157017
0.161404
0.165579
0.169569
0.173408
0.17713
0.180764
0.18433
0.187834
0.191277
0.194653
0.197958
0.201195
0.204373
0.207508
0.210621
0.21374
0.216894
0.22011
0.223421
0.226858
0.23046
0.23427
0.238334
0.24271
0.247462
0.252668
0.258425
0.264873
0.272211
0.280747
0.290963
0.303637
0.320057
0.342408
0.374223
0.419516
0.475522
0.523556
0.549051
0.558446
0.561344
0.562179
0.562412
0.562476
0.562494
0.562498
0.5625
0.5625
0.5625
0.5625
0.5625
0.5625
0.5625
0.5625
0.5625
0.5625
0.5625
0.5625
0.5625
0.5625
0.5625
0.5625
0.5625
0.5625
0.5625
0.5625
0.5625
0.5625
0.5625
0.5625
0.5625
0.5625
0.5625
0.5625
0.5625
0.5625
0.5625
0.5625
0.5625
0.5625
0.5625
0.5625
0.5625
0.5625
0.5625
0.5625
0.5625
0.5625
0.5625
0.5625
0.5625
0.5625
0.5625
0.5625
0.5625
0.5625
0.5625
0.5625
0.5625
0.5625
0.5625
0.5625
0.5625
0.5625
0.5625
0.5625
0.5625
0.5625
0.5625
0.5625
0.5625
0.5625
0.5625
0.5625
0.5625
0.5625
0.5625
0.5625
0.5625
0.5625
0.5625
0.5625
0.5625
0.5625
0.0418376
0.043575
0.045876
0.0487056
0.052029
0.0558101
0.0600133
0.0646031
0.0695406
0.0747798
0.0802718
0.0859672
0.0918169
0.097774
0.103796
0.109847
0.115894
0.121905
0.127854
0.133714
0.139458
0.145055
0.150473
0.155681
0.160646
0.165339
0.169747
0.173878
0.177769
0.181474
0.185053
0.188551
0.191997
0.195395
0.198738
0.202008
0.205189
0.208274
0.21127
0.214193
0.217073
0.219947
0.222848
0.225813
0.228877
0.232077
0.235458
0.239073
0.242984
0.247262
0.251987
0.257257
0.2632
0.27
0.277933
0.287435
0.299209
0.314418
0.335032
0.364322
0.406606
0.461884
0.514407
0.545246
0.557247
0.561004
0.562085
0.562386
0.562469
0.562492
0.562498
0.562499
0.5625
0.5625
0.5625
0.5625
0.5625
0.5625
0.5625
0.5625
0.5625
0.5625
0.5625
0.5625
0.5625
0.5625
0.5625
0.5625
0.5625
0.5625
0.5625
0.5625
0.5625
0.5625
0.5625
0.5625
0.5625
0.5625
0.5625
0.5625
0.5625
0.5625
0.5625
0.5625
0.5625
0.5625
0.5625
0.5625
0.5625
0.5625
0.5625
0.5625
0.5625
0.5625
0.5625
0.5625
0.5625
0.5625
0.5625
0.5625
0.5625
0.5625
0.5625
0.5625
0.5625
0.5625
0.5625
0.5625
0.5625
0.5625
0.5625
0.5625
0.5625
0.5625
0.5625
0.5625
0.5625
0.5625
0.5625
0.5625
0.5625
0.5625
0.5625
0.5625
0.5625
0.5625
0.5625
0.5625
0.5625
0.5625
0.0467875
0.0485582
0.0509159
0.0538264
0.0572556
0.0611685
0.0655304
0.0703011
0.0754324
0.0808717
0.0865659
0.0924634
0.0985143
0.104674
0.110904
0.117172
0.123448
0.129707
0.135924
0.142075
0.148129
0.154054
0.159806
0.165537
0.171134
0.176332
0.180814
0.184845
0.188519
0.191939
0.19522
0.198446
0.201667
0.204891
0.208092
0.211225
0.214248
0.217136
0.219886
0.222519
0.225076
0.227606
0.230159
0.232777
0.235498
0.238364
0.241427
0.244755
0.248429
0.252542
0.257198
0.262528
0.268704
0.275978
0.284751
0.295668
0.309806
0.328992
0.356309
0.396194
0.450463
0.506214
0.541746
0.556186
0.560727
0.562016
0.562369
0.562465
0.562491
0.562498
0.562499
0.5625
0.5625
0.5625
0.5625
0.5625
0.5625
0.5625
0.5625
0.5625
0.5625
0.5625
0.5625
0.5625
0.5625
0.5625
0.5625
0.5625
0.5625
0.5625
0.5625
0.5625
0.5625
0.5625
0.5625
0.5625
0.5625
0.5625
0.5625
0.5625
0.5625
0.5625
0.5625
0.5625
0.5625
0.5625
0.5625
0.5625
0.5625
0.5625
0.5625
0.5625
0.5625
0.5625
0.5625
0.5625
0.5625
0.5625
0.5625
0.5625
0.5625
0.5625
0.5625
0.5625
0.5625
0.5625
0.5625
0.5625
0.5625
0.5625
0.5625
0.5625
0.5625
0.5625
0.5625
0.5625
0.5625
0.5625
0.5625
0.5625
0.5625
0.5625
0.5625
0.5625
0.5625
0.5625
0.5625
0.5625
0.5625
0.5625
0.0516235
0.0534468
0.0558927
0.0589281
0.06252
0.0666341
0.0712293
0.0762545
0.0816515
0.0873605
0.0933238
0.0994874
0.105803
0.112231
0.11874
0.125303
0.131899
0.138512
0.145127
0.151726
0.158283
0.164773
0.171782
0.178986
0.186217
0.193148
0.199188
0.203174
0.206416
0.20914
0.211644
0.214141
0.216752
0.219499
0.22232
0.2251
0.227726
0.230137
0.232324
0.234318
0.23619
0.238037
0.239937
0.24194
0.24408
0.24639
0.248929
0.25178
0.25505
0.258866
0.263372
0.268741
0.275213
0.283155
0.29317
0.306269
0.324186
0.349877
0.387847
0.441148
0.499292
0.538813
0.555384
0.560563
0.561993
0.562368
0.562465
0.562491
0.562498
0.562499
0.5625
0.5625
0.5625
0.5625
0.5625
0.5625
0.5625
0.5625
0.5625
0.5625
0.5625
0.5625
0.5625
0.5625
0.5625
0.5625
0.5625
0.5625
0.5625
0.5625
0.5625
0.5625
0.5625
0.5625
0.5625
0.5625
0.5625
0.5625
0.5625
0.5625
0.5625
0.5625
0.5625
0.5625
0.5625
0.5625
0.5625
0.5625
0.5625
0.5625
0.5625
0.5625
0.5625
0.5625
0.5625
0.5625
0.5625
0.5625
0.5625
0.5625
0.5625
0.5625
0.5625
0.5625
0.5625
0.5625
0.5625
0.5625
0.5625
0.5625
0.5625
0.5625
0.5625
0.5625
0.5625
0.5625
0.5625
0.5625
0.5625
0.5625
0.5625
0.5625
0.5625
0.5625
0.5625
0.5625
0.5625
0.5625
0.5625
0.5625
0.0563061
0.0582043
0.0607769
0.0639932
0.0678213
0.072221
0.0771398
0.0825119
0.0882656
0.0943315
0.100646
0.107154
0.113814
0.120593
0.127471
0.134434
0.141478
0.148605
0.155819
0.163122
0.170515
0.179028
0.188295
0.198474
0.209618
0.220895
0.231436
0.236469
0.23885
0.239877
0.240507
0.241307
0.242609
0.244489
0.246777
0.249117
0.251136
0.252664
0.253663
0.254199
0.25445
0.254681
0.255083
0.255733
0.256644
0.25782
0.259308
0.261209
0.263677
0.266889
0.27104
0.276366
0.283212
0.292135
0.304093
0.320752
0.344997
0.381383
0.433827
0.493755
0.536547
0.554865
0.56051
0.562007
0.562378
0.56247
0.562492
0.562498
0.562499
0.5625
0.5625
0.5625
0.5625
0.5625
0.5625
0.5625
0.5625
0.5625
0.5625
0.5625
0.5625
0.5625
0.5625
0.5625
0.5625
0.5625
0.5625
0.5625
0.5625
0.5625
0.5625
0.5625
0.5625
0.5625
0.5625
0.5625
0.5625
0.5625
0.5625
0.5625
0.5625
0.5625
0.5625
0.5625
0.5625
0.5625
0.5625
0.5625
0.5625
0.5625
0.5625
0.5625
0.5625
0.5625
0.5625
0.5625
0.5625
0.5625
0.5625
0.5625
0.5625
0.5625
0.5625
0.5625
0.5625
0.5625
0.5625
0.5625
0.5625
0.5625
0.5625
0.5625
0.5625
0.5625
0.5625
0.5625
0.5625
0.5625
0.5625
0.5625
0.5625
0.5625
0.5625
0.5625
0.5625
0.5625
0.5625
0.5625
0.5625
0.5625
0.0608217
0.0628335
0.0655874
0.0690502
0.0731827
0.0779313
0.0832262
0.0890837
0.0953925
0.101926
0.108693
0.115642
0.122742
0.129978
0.137345
0.144857
0.152539
0.160427
0.168571
0.177035
0.186969
0.198774
0.212957
0.229524
0.249171
0.268855
0.291171
0.299207
0.29988
0.296134
0.291866
0.288529
0.28702
0.287603
0.289848
0.292819
0.294491
0.294842
0.293742
0.291247
0.287778
0.284269
0.281296
0.279001
0.277295
0.276072
0.275328
0.2752
0.275941
0.277831
0.281143
0.286204
0.293513
0.303963
0.31916
0.34195
0.376941
0.428624
0.489775
0.535001
0.554599
0.560528
0.562041
0.562394
0.562475
0.562494
0.562499
0.5625
0.5625
0.5625
0.5625
0.5625
0.5625
0.5625
0.5625
0.5625
0.5625
0.5625
0.5625
0.5625
0.5625
0.5625
0.5625
0.5625
0.5625
0.5625
0.5625
0.5625
0.5625
0.5625
0.5625
0.5625
0.5625
0.5625
0.5625
0.5625
0.5625
0.5625
0.5625
0.5625
0.5625
0.5625
0.5625
0.5625
0.5625
0.5625
0.5625
0.5625
0.5625
0.5625
0.5625
0.5625
0.5625
0.5625
0.5625
0.5625
0.5625
0.5625
0.5625
0.5625
0.5625
0.5625
0.5625
0.5625
0.5625
0.5625
0.5625
0.5625
0.5625
0.5625
0.5625
0.5625
0.5625
0.5625
0.5625
0.5625
0.5625
0.5625
0.5625
0.5625
0.5625
0.5625
0.5625
0.5625
0.5625
0.5625
0.5625
0.5625
0.5625
0.5625
0.065151
0.0673288
0.0703391
0.0741463
0.0787005
0.0839276
0.0897388
0.0961154
0.102909
0.109981
0.117711
0.125223
0.132887
0.140717
0.148747
0.157031
0.165651
0.174718
0.184395
0.195157
0.209743
0.228939
0.253333
0.280434
0.314795
0.342288
0.382605
0.391937
0.391812
0.377632
0.364538
0.35443
0.349135
0.349776
0.359198
0.378346
0.383621
0.382788
0.377262
0.366926
0.352831
0.339293
0.328271
0.319655
0.312665
0.30666
0.301399
0.297073
0.294215
0.293351
0.29489
0.299272
0.307261
0.320357
0.341366
0.374951
0.425922
0.487706
0.534309
0.554571
0.560597
0.562085
0.562412
0.562481
0.562496
0.562499
0.5625
0.5625
0.5625
0.5625
0.5625
0.5625
0.5625
0.5625
0.5625
0.5625
0.5625
0.5625
0.5625
0.5625
0.5625
0.5625
0.5625
0.5625
0.5625
0.5625
0.5625
0.5625
0.5625
0.5625
0.5625
0.5625
0.5625
0.5625
0.5625
0.5625
0.5625
0.5625
0.5625
0.5625
0.5625
0.5625
0.5625
0.5625
0.5625
0.5625
0.5625
0.5625
0.5625
0.5625
0.5625
0.5625
0.5625
0.5625
0.5625
0.5625
0.5625
0.5625
0.5625
0.5625
0.5625
0.5625
0.5625
0.5625
0.5625
0.5625
0.5625
0.5625
0.5625
0.5625
0.5625
0.5625
0.5625
0.5625
0.5625
0.5625
0.5625
0.5625
0.5625
0.5625
0.5625
0.5625
0.5625
0.5625
0.5625
0.5625
0.5625
0.5625
0.5625
0.5625
0.0692757
0.0716813
0.0750419
0.0793218
0.0844566
0.0903411
0.0968525
0.103913
0.111348
0.119075
0.127334
0.135958
0.144688
0.153331
0.162291
0.171718
0.181809
0.192859
0.205339
0.222553
0.246512
0.280237
0.322043
0.358681
0.411755
0.4275
0.452646
0.538257
0.530661
0.41134
0.406521
0.400525
0.398883
0.407094
0.436558
0.477111
0.492624
0.500054
0.497041
0.479663
0.4464
0.415384
0.393016
0.376947
0.363962
0.352008
0.340292
0.329189
0.320154
0.31453
0.313083
0.316473
0.325978
0.344279
0.376066
0.426216
0.487975
0.534677
0.554819
0.560706
0.562122
0.562426
0.562486
0.562497
0.562499
0.5625
0.5625
0.5625
0.5625
0.5625
0.5625
0.5625
0.5625
0.5625
0.5625
0.5625
0.5625
0.5625
0.5625
0.5625
0.5625
0.5625
0.5625
0.5625
0.5625
0.5625
0.5625
0.5625
0.5625
0.5625
0.5625
0.5625
0.5625
0.5625
0.5625
0.5625
0.5625
0.5625
0.5625
0.5625
0.5625
0.5625
0.5625
0.5625
0.5625
0.5625
0.5625
0.5625
0.5625
0.5625
0.5625
0.5625
0.5625
0.5625
0.5625
0.5625
0.5625
0.5625
0.5625
0.5625
0.5625
0.5625
0.5625
0.5625
0.5625
0.5625
0.5625
0.5625
0.5625
0.5625
0.5625
0.5625
0.5625
0.5625
0.5625
0.5625
0.5625
0.5625
0.5625
0.5625
0.5625
0.5625
0.5625
0.5625
0.5625
0.5625
0.5625
0.5625
0.5625
0.5625
0.0731826
0.075891
0.0797238
0.0846545
0.0905999
0.0974012
0.104864
0.11283
0.121117
0.129687
0.138686
0.148084
0.158119
0.168659
0.179056
0.190337
0.203011
0.217881
0.236409
0.266146
0.307779
0.36526
0.429489
0.457206
0.498116
0.56015
0.562483
0.562474
0.562308
0.55971
0.523582
0.434109
0.438626
0.462047
0.506792
0.53293
0.560349
0.562451
0.560747
0.54446
0.468098
0.452999
0.440026
0.430102
0.420212
0.407702
0.391296
0.371886
0.353756
0.341112
0.335691
0.338614
0.352232
0.381113
0.429911
0.4908
0.536226
0.555395
0.560875
0.562165
0.562437
0.562489
0.562498
0.5625
0.5625
0.5625
0.5625
0.5625
0.5625
0.5625
0.5625
0.5625
0.5625
0.5625
0.5625
0.5625
0.5625
0.5625
0.5625
0.5625
0.5625
0.5625
0.5625
0.5625
0.5625
0.5625
0.5625
0.5625
0.5625
0.5625
0.5625
0.5625
0.5625
0.5625
0.5625
0.5625
0.5625
0.5625
0.5625
0.5625
0.5625
0.5625
0.5625
0.5625
0.5625
0.5625
0.5625
0.5625
0.5625
0.5625
0.5625
0.5625
0.5625
0.5625
0.5625
0.5625
0.5625
0.5625
0.5625
0.5625
0.5625
0.5625
0.5625
0.5625
0.5625
0.5625
0.5625
0.5625
0.5625
0.5625
0.5625
0.5625
0.5625
0.5625
0.5625
0.5625
0.5625
0.5625
0.5625
0.5625
0.5625
0.5625
0.5625
0.5625
0.5625
0.5625
0.5625
0.5625
0.5625
0.5625
0.0768658
0.0799664
0.0844346
0.0902785
0.097392
0.105512
0.114296
0.123484
0.132911
0.142578
0.152609
0.163104
0.174336
0.187233
0.201152
0.215952
0.233981
0.25777
0.292805
0.34973
0.415637
0.490455
0.530438
0.561009
0.562489
0.562498
0.5625
0.5625
0.5625
0.562496
0.562412
0.546029
0.493411
0.52189
0.551797
0.562368
0.5625
0.5625
0.562498
0.562451
0.54693
0.480141
0.481883
0.485229
0.485658
0.478581
0.459823
0.427966
0.393656
0.371038
0.361904
0.367325
0.391108
0.437204
0.495955
0.538798
0.556277
0.561115
0.56222
0.562448
0.562491
0.562499
0.5625
0.5625
0.5625
0.5625
0.5625
0.5625
0.5625
0.5625
0.5625
0.5625
0.5625
0.5625
0.5625
0.5625
0.5625
0.5625
0.5625
0.5625
0.5625
0.5625
0.5625
0.5625
0.5625
0.5625
0.5625
0.5625
0.5625
0.5625
0.5625
0.5625
0.5625
0.5625
0.5625
0.5625
0.5625
0.5625
0.5625
0.5625
0.5625
0.5625
0.5625
0.5625
0.5625
0.5625
0.5625
0.5625
0.5625
0.5625
0.5625
0.5625
0.5625
0.5625
0.5625
0.5625
0.5625
0.5625
0.5625
0.5625
0.5625
0.5625
0.5625
0.5625
0.5625
0.5625
0.5625
0.5625
0.5625
0.5625
0.5625
0.5625
0.5625
0.5625
0.5625
0.5625
0.5625
0.5625
0.5625
0.5625
0.5625
0.5625
0.5625
0.5625
0.5625
0.5625
0.5625
0.5625
0.5625
0.5625
0.0803253
0.0839185
0.0892444
0.0964123
0.105301
0.115432
0.126133
0.137044
0.148049
0.159227
0.170777
0.18297
0.196279
0.21178
0.232486
0.256069
0.287314
0.335841
0.42279
0.504064
0.540551
0.557082
0.562455
0.562498
0.5625
0.5625
0.5625
0.5625
0.5625
0.5625
0.5625
0.56233
0.558946
0.552656
0.562035
0.562497
0.5625
0.5625
0.5625
0.5625
0.562436
0.54397
0.557026
0.559871
0.559255
0.551495
0.532502
0.44141
0.413345
0.394567
0.39042
0.406887
0.448107
0.502821
0.541946
0.557331
0.561405
0.562289
0.562461
0.562493
0.562499
0.5625
0.5625
0.5625
0.5625
0.5625
0.5625
0.5625
0.5625
0.5625
0.5625
0.5625
0.5625
0.5625
0.5625
0.5625
0.5625
0.5625
0.5625
0.5625
0.5625
0.5625
0.5625
0.5625
0.5625
0.5625
0.5625
0.5625
0.5625
0.5625
0.5625
0.5625
0.5625
0.5625
0.5625
0.5625
0.5625
0.5625
0.5625
0.5625
0.5625
0.5625
0.5625
0.5625
0.5625
0.5625
0.5625
0.5625
0.5625
0.5625
0.5625
0.5625
0.5625
0.5625
0.5625
0.5625
0.5625
0.5625
0.5625
0.5625
0.5625
0.5625
0.5625
0.5625
0.5625
0.5625
0.5625
0.5625
0.5625
0.5625
0.5625
0.5625
0.5625
0.5625
0.5625
0.5625
0.5625
0.5625
0.5625
0.5625
0.5625
0.5625
0.5625
0.5625
0.5625
0.5625
0.5625
0.5625
0.5625
0.5625
0.0835604
0.0877416
0.0942192
0.103392
0.115216
0.128767
0.142529
0.156097
0.16949
0.182982
0.197022
0.212223
0.229568
0.250916
0.28047
0.328771
0.391053
0.478529
0.544667
0.559307
0.562411
0.562487
0.5625
0.5625
0.5625
0.5625
0.5625
0.5625
0.5625
0.5625
0.5625
0.5625
0.562412
0.560716
0.562445
0.5625
0.5625
0.5625
0.5625
0.5625
0.562381
0.559904
0.562355
0.562495
0.562489
0.561978
0.558889
0.455184
0.431804
0.420401
0.428776
0.462617
0.510745
0.545152
0.558361
0.561692
0.562359
0.562477
0.562496
0.562499
0.5625
0.5625
0.5625
0.5625
0.5625
0.5625
0.5625
0.5625
0.5625
0.5625
0.5625
0.5625
0.5625
0.5625
0.5625
0.5625
0.5625
0.5625
0.5625
0.5625
0.5625
0.5625
0.5625
0.5625
0.5625
0.5625
0.5625
0.5625
0.5625
0.5625
0.5625
0.5625
0.5625
0.5625
0.5625
0.5625
0.5625
0.5625
0.5625
0.5625
0.5625
0.5625
0.5625
0.5625
0.5625
0.5625
0.5625
0.5625
0.5625
0.5625
0.5625
0.5625
0.5625
0.5625
0.5625
0.5625
0.5625
0.5625
0.5625
0.5625
0.5625
0.5625
0.5625
0.5625
0.5625
0.5625
0.5625
0.5625
0.5625
0.5625
0.5625
0.5625
0.5625
0.5625
0.5625
0.5625
0.5625
0.5625
0.5625
0.5625
0.5625
0.5625
0.5625
0.5625
0.5625
0.5625
0.5625
0.5625
0.5625
0.5625
0.0865621
0.0913672
0.0993165
0.111645
0.129007
0.149702
0.16935
0.187762
0.205033
0.222197
0.240465
0.26115
0.286301
0.319579
0.368546
0.444229
0.5191
0.556311
0.562088
0.562491
0.5625
0.5625
0.5625
0.5625
0.5625
0.5625
0.5625
0.5625
0.5625
0.5625
0.5625
0.5625
0.562498
0.562257
0.562498
0.5625
0.5625
0.5625
0.5625
0.5625
0.562488
0.562293
0.562498
0.5625
0.5625
0.562474
0.560937
0.472796
0.455562
0.456228
0.480543
0.519344
0.548082
0.559214
0.561924
0.562415
0.562489
0.562499
0.5625
0.5625
0.5625
0.5625
0.5625
0.5625
0.5625
0.5625
0.5625
0.5625
0.5625
0.5625
0.5625
0.5625
0.5625
0.5625
0.5625
0.5625
0.5625
0.5625
0.5625
0.5625
0.5625
0.5625
0.5625
0.5625
0.5625
0.5625
0.5625
0.5625
0.5625
0.5625
0.5625
0.5625
0.5625
0.5625
0.5625
0.5625
0.5625
0.5625
0.5625
0.5625
0.5625
0.5625
0.5625
0.5625
0.5625
0.5625
0.5625
0.5625
0.5625
0.5625
0.5625
0.5625
0.5625
0.5625
0.5625
0.5625
0.5625
0.5625
0.5625
0.5625
0.5625
0.5625
0.5625
0.5625
0.5625
0.5625
0.5625
0.5625
0.5625
0.5625
0.5625
0.5625
0.5625
0.5625
0.5625
0.5625
0.5625
0.5625
0.5625
0.5625
0.5625
0.5625
0.5625
0.5625
0.5625
0.5625
0.5625
0.5625
0.5625
0.5625
0.08931
0.0945962
0.104079
0.121548
0.153813
0.204655
0.254181
0.303166
0.282163
0.297664
0.320561
0.348087
0.382934
0.430127
0.488596
0.53831
0.55928
0.562456
0.562499
0.5625
0.5625
0.5625
0.5625
0.5625
0.5625
0.5625
0.5625
0.5625
0.5625
0.5625
0.5625
0.5625
0.5625
0.562466
0.5625
0.5625
0.5625
0.5625
0.5625
0.5625
0.562499
0.562491
0.5625
0.5625
0.5625
0.562499
0.559314
0.49494
0.488102
0.50068
0.527607
0.550173
0.559677
0.56205
0.56245
0.562496
0.5625
0.5625
0.5625
0.5625
0.5625