/*--------------------------------*- C++ -*----------------------------------*\
| =========                 |                                                 |
| \\      /  F ield         | OpenFOAM: The Open Source CFD Toolbox           |
|  \\    /   O peration     | Version:  2.1.0                                 |
|   \\  /    A nd           | Web:      www.OpenFOAM.org                      |
|    \\/     M anipulation  |                                                 |
\*---------------------------------------------------------------------------*/
FoamFile
{
    version     2.0;
    format      ascii;
    class       surfaceScalarField;
    location    "12045";
    object      phi_w;
}
// * * * * * * * * * * * * * * * * * * * * * * * * * * * * * * * * * * * * * //

dimensions      [1 -2 -2 0 0 0 0];

internalField   nonuniform List<scalar> 
29750
(
18.5878
18.6226
11.2484
7.36473
7.93374
3.49631
6.30554
1.99348
5.41217
1.31662
4.85625
0.957004
4.47708
0.738256
4.20417
0.591862
4.00224
0.487051
3.85144
0.408152
3.73962
0.346418
3.65877
0.296636
3.60335
0.255521
3.56935
0.220923
3.55372
0.191402
3.55414
0.16599
3.56872
0.144019
3.59578
0.125013
3.63367
0.108593
3.68082
0.0944725
3.73574
0.082439
3.79701
0.0723189
3.86327
0.0639575
3.93325
0.0572164
4.00578
0.0519695
4.07976
0.0480889
4.1542
0.045434
4.22822
0.0438616
4.30107
0.0432398
4.37212
0.0434433
4.44081
0.0443525
4.5067
0.0458596
4.56941
0.0478781
4.62864
0.0503458
4.68411
0.0532029
4.73561
0.0563793
4.78298
0.0598143
4.82615
0.0634474
4.86512
0.0672005
4.89997
0.0709777
4.93089
0.0746741
4.95822
0.0781844
4.98236
0.0813907
5.00389
0.0841706
5.02348
0.0864117
5.04192
0.0880254
5.06013
0.0889279
5.07908
0.0890511
5.09984
0.0883578
5.12353
0.0868419
5.15128
0.084522
5.18427
0.0814463
5.22366
0.0777031
5.27064
0.073415
5.32639
0.0687312
5.39212
0.063827
5.46912
0.0589183
5.5588
0.0542438
5.66291
0.0500747
5.78375
0.0467876
5.92446
0.0449111
6.08955
0.045183
6.28544
0.0487578
6.52114
0.0575483
6.80723
0.0746777
7.1469
0.104218
7.49588
0.146128
7.68876
0.177265
7.58659
0.151635
7.38507
0.0971072
7.2529
0.0669888
7.17459
0.0556394
7.11754
0.0504889
7.06854
0.0472288
7.02324
0.0448236
6.98011
0.0430183
6.93843
0.0416599
6.89779
0.0406418
6.85795
0.0398512
6.81878
0.039164
6.7803
0.0384938
6.74259
0.0377167
6.70584
0.036735
6.67036
0.0354882
6.63648
0.0338836
6.60463
0.0318489
6.57528
0.0293583
6.54893
0.0263698
6.52609
0.0228348
6.50735
0.0187426
6.49327
0.0140851
6.48445
0.00882077
6.48151
0.00290949
6.48515
-0.00366921
6.4961
-0.0109563
6.51513
-0.0190348
6.54311
-0.0279993
6.58104
-0.0379407
6.63003
-0.0489775
6.69133
-0.0612775
6.76637
-0.0750402
6.85682
-0.0904752
6.96463
-0.107814
7.09198
-0.127332
7.24134
-0.149346
7.41553
-0.174183
7.61769
-0.202159
7.85126
-0.23356
8.11986
-0.2686
8.4272
-0.307343
8.77675
-0.349582
9.17143
-0.394692
9.61293
-0.441484
10.101
-0.488056
10.6328
-0.531747
11.2021
-0.569362
11.8
-0.597916
12.4161
-0.616053
13.0421
-0.625973
13.677
-0.63493
14.3318
-0.654823
15.0311
-0.699284
15.8113
-0.780172
16.7153
-0.904013
17.7825
-1.06716
19.0307
-1.2482
20.4291
-1.3984
21.8678
-1.43874
23.1544
-1.28661
24.0958
-0.941391
24.6652
-0.569393
24.9061
-0.24082
24.8598
0.0462423
24.5423
0.317537
23.9591
0.583162
23.1508
0.808314
22.2264
0.924407
21.2278
0.998607
20.1171
1.11066
18.8242
1.29291
17.3017
1.52245
15.561
1.74074
13.6513
1.9097
11.6445
2.00676
9.61021
2.03431
7.59803
2.01219
5.63319
1.96483
3.72013
1.91307
1.84868
1.87146
1.84869
7.32991
11.3179
7.37993
7.44925
6.43091
4.76278
5.62867
3.21485
5.05255
2.3155
4.6375
1.75914
4.33068
1.39062
4.09936
1.13154
3.92334
0.94022
3.78971
0.793152
3.68983
0.676357
3.61765
0.58112
3.56876
0.501795
3.53982
0.434617
3.52831
0.377036
3.53217
0.32729
3.54971
0.284145
3.57936
0.246709
3.61955
0.214302
3.66879
0.186406
3.72562
0.162616
3.78864
0.142597
3.85652
0.126061
3.928
0.112756
4.0019
0.102434
4.07711
0.0948321
4.15263
0.089679
4.2276
0.086698
4.30128
0.0856183
4.37303
0.0861732
4.44232
0.0881145
4.50872
0.091238
4.57188
0.0953826
4.63149
0.100408
4.68728
0.10619
4.73904
0.112618
4.78661
0.119584
4.8299
0.126966
4.8689
0.134598
4.90366
0.142297
4.9344
0.14985
4.96142
0.157032
4.98514
0.163595
5.00613
0.169315
5.02509
0.17397
5.04282
0.177351
5.06025
0.179291
5.07839
0.17967
5.09833
0.178405
5.12121
0.175473
5.14821
0.170921
5.18053
0.164862
5.21938
0.157482
5.26596
0.149032
5.32149
0.13983
5.38721
0.130261
5.46444
0.120763
5.55463
0.111848
5.65963
0.104143
5.78187
0.0984398
5.92473
0.0958205
6.09312
0.0978119
6.29423
0.106663
6.53827
0.125782
6.83677
0.159902
7.18881
0.213125
7.52701
0.277159
7.66313
0.304581
7.53206
0.248566
7.35495
0.17371
7.24155
0.131782
7.16944
0.111998
7.11428
0.101205
7.06614
0.0941922
7.02143
0.0892261
6.97876
0.0856194
6.93741
0.0829952
6.897
0.0810656
6.85726
0.0795863
6.81811
0.078338
6.77952
0.0770816
6.74161
0.0756139
6.70459
0.073763
6.66875
0.0713366
6.63445
0.068174
6.60214
0.0641733
6.57229
0.0592343
6.54539
0.0532632
6.522
0.0462157
6.50269
0.0380662
6.48801
0.0287622
6.47854
0.0182458
6.47493
0.00647517
6.47786
-0.00661099
6.48802
-0.0211245
6.50617
-0.0372082
6.53317
-0.0550191
6.57
-0.0747543
6.61773
-0.0966787
6.67756
-0.121116
6.75093
-0.14843
6.83949
-0.179036
6.94511
-0.213422
7.06996
-0.252159
7.2165
-0.295876
7.38755
-0.34523
7.58629
-0.400888
7.81622
-0.463483
8.08112
-0.533519
8.38496
-0.611213
8.73164
-0.696286
9.12464
-0.787674
9.56635
-0.883163
10.0573
-0.97899
10.5952
-1.06958
11.1736
-1.14779
11.7819
-1.20624
12.4062
-1.24031
13.0331
-1.2529
13.6571
-1.25893
14.2874
-1.28509
14.9502
-1.36214
15.6875
-1.51738
16.5522
-1.76871
17.6014
-2.11644
18.8805
-2.52723
20.3887
-2.90665
22.0199
-3.06993
23.4997
-2.76632
24.4678
-1.90956
24.9938
-1.09537
25.1931
-0.440141
25.1311
0.108247
24.8079
0.640745
24.1843
1.2068
23.2669
1.72568
22.3006
1.8907
21.3398
1.95935
20.2994
2.1511
19.0537
2.53853
17.52
3.05615
15.7299
3.53082
13.7483
3.89128
11.6721
4.08304
9.5881
4.11828
7.55067
4.04961
5.58142
3.93408
3.67852
3.81598
1.82591
3.72409
3.6746
3.46131
8.03686
4.69347
6.53375
4.88299
4.98571
4.72932
3.79815
4.49619
2.95186
4.26898
2.35098
4.0716
1.91507
3.90804
1.58937
3.77627
1.33854
3.67291
1.13988
3.5946
0.978616
3.53833
0.844921
3.50158
0.732149
3.48224
0.635727
3.47856
0.552464
3.48902
0.480115
3.51227
0.417086
3.54695
0.362199
3.59166
0.314551
3.645
0.273447
3.7056
0.238341
3.77211
0.208785
3.84322
0.184403
3.91768
0.164844
3.9943
0.149749
4.07195
0.138738
4.14965
0.131409
4.22652
0.127341
4.30183
0.126102
4.37497
0.127275
4.44544
0.130492
4.51287
0.135443
4.57691
0.141878
4.63727
0.149596
4.69371
0.158439
4.74601
0.16827
4.79399
0.17894
4.83754
0.190264
4.87659
0.201999
4.91122
0.213867
4.94158
0.225542
4.96799
0.236671
4.99086
0.246891
5.01079
0.255835
5.02847
0.263153
5.04476
0.26854
5.06063
0.271735
5.07712
0.272535
5.0954
0.27082
5.11666
0.266561
5.14215
0.259821
5.17315
0.250782
5.21093
0.23974
5.25676
0.227096
5.31192
0.213346
5.37772
0.199097
5.45553
0.18505
5.54692
0.172032
5.65392
0.161076
5.77925
0.15344
5.92672
0.150776
6.10197
0.155376
6.31335
0.170432
6.57239
0.200462
6.88999
0.250808
7.25284
0.322653
7.55444
0.393089
7.60711
0.394505
7.4572
0.312209
7.31302
0.233715
7.22176
0.189155
7.15864
0.164692
7.10727
0.149679
7.06117
0.139533
7.01783
0.132372
6.97613
0.127267
6.93548
0.123625
6.89552
0.121031
6.85601
0.119105
6.81685
0.117488
6.77806
0.115862
6.73976
0.113921
6.70217
0.111356
6.66559
0.107892
6.63045
0.103317
6.5972
0.0974442
6.56632
0.0901133
6.53835
0.0812255
6.51385
0.0707247
6.49338
0.0585501
6.47749
0.0446363
6.46676
0.0289337
6.46184
0.0113836
6.46335
-0.00812115
6.47194
-0.0297367
6.48835
-0.0536504
6.51343
-0.0800946
6.54808
-0.109377
6.59329
-0.14189
6.65025
-0.178093
6.72033
-0.218518
6.8051
-0.263797
6.90638
-0.314679
7.02625
-0.372024
7.16715
-0.436779
7.33189
-0.509973
7.52369
-0.592684
7.74618
-0.685978
8.00343
-0.790785
8.29988
-0.907693
8.64026
-1.03666
9.02915
-1.17654
9.47053
-1.32451
9.96672
-1.47517
10.5169
-1.6198
11.1151
-1.74598
11.7478
-1.83892
12.3936
-1.88603
13.0271
-1.8864
13.631
-1.8628
14.2103
-1.86445
14.795
-1.9468
15.4361
-2.15851
16.2044
-2.53702
17.1907
-3.10265
18.5011
-3.83762
20.2255
-4.63106
22.3235
-5.168
24.3564
-4.79919
25.282
-2.83516
25.649
-1.4624
25.7415
-0.532629
25.6636
0.18614
25.3739
0.930395
24.7031
1.87761
23.4319
2.99692
22.3692
2.95336
21.5316
2.79699
20.6868
2.99588
19.5714
3.65396
17.9947
4.63281
16.0904
5.43512
13.9401
6.04157
11.7073
6.31582
9.51943
6.30615
7.43514
6.13391
5.46332
5.90591
3.58663
5.69268
1.77642
5.53431
5.45102
1.95819
6.44233
3.14543
5.76533
3.69543
4.86569
3.88303
4.019
3.89532
3.31399
3.83307
2.75235
3.74591
2.30909
3.6572
1.9568
3.57761
1.67281
3.51165
1.44006
3.4609
1.24614
3.42556
1.08212
3.40516
0.941606
3.39898
0.820015
3.40621
0.714035
3.42599
0.621282
3.45739
0.540019
3.4993
0.46892
3.55055
0.406964
3.60989
0.353365
3.67604
0.307509
3.74773
0.268903
3.82366
0.237117
3.90259
0.211731
3.98328
0.192303
4.06462
0.178348
4.14558
0.169325
4.22528
0.164644
4.303
0.163698
4.37819
0.165906
4.45039
0.170754
4.5193
0.177816
4.58463
0.186764
4.64612
0.197366
4.70354
0.209456
4.75668
0.222888
4.80531
0.237487
4.84927
0.253022
4.88846
0.269185
4.92289
0.285588
4.95271
0.301787
4.97821
0.317289
4.99981
0.33158
5.01811
0.344146
5.03386
0.354504
5.04796
0.362235
5.06143
0.366973
5.07541
0.368418
5.09114
0.366396
5.10992
0.360864
5.13311
0.35192
5.16211
0.339818
5.19828
0.324958
5.24301
0.307903
5.29767
0.289372
5.36367
0.270227
5.44251
0.251458
5.53597
0.23424
5.64629
0.220028
5.77659
0.210618
5.93132
0.208268
6.11703
0.216022
6.34338
0.238035
6.62274
0.27967
6.96184
0.345754
7.32328
0.430609
7.55585
0.489694
7.52481
0.451427
7.37871
0.354474
7.26846
0.281109
7.1973
0.238117
7.14363
0.211827
7.09713
0.194347
7.05401
0.182168
7.01272
0.173539
6.97249
0.167438
6.93289
0.163222
6.89359
0.160333
6.85439
0.158284
6.81523
0.156648
6.77611
0.154983
6.73719
0.152843
6.6987
0.149825
6.66102
0.14557
6.62458
0.139765
6.58987
0.132149
6.55743
0.12254
6.52784
0.110825
6.50168
0.0969205
6.47947
0.080759
6.46179
0.0622951
6.44921
0.0414878
6.44234
0.0182587
6.44173
-0.00752767
6.44802
-0.036053
6.46191
-0.0675486
6.48415
-0.102323
6.51556
-0.140782
6.55709
-0.183425
6.60982
-0.230841
6.67505
-0.283734
6.75422
-0.34295
6.84903
-0.409488
6.96149
-0.484491
7.09395
-0.56925
7.24918
-0.665201
7.4304
-0.773902
7.64138
-0.896969
7.88652
-1.03595
8.17092
-1.1921
8.50037
-1.36608
8.88119
-1.55733
9.31986
-1.76317
9.8221
-1.9774
10.3908
-2.18846
11.0222
-2.37741
11.7007
-2.51744
12.3932
-2.5785
13.0507
-2.54388
13.6293
-2.44142
14.128
-2.36311
14.5833
-2.40211
15.0576
-2.63283
15.6388
-3.11821
16.4557
-3.91953
17.7076
-5.08955
19.6885
-6.61196
22.6923
-8.17181
26.3205
-8.4273
26.6548
-3.16948
26.5788
-1.38645
26.4603
-0.414121
26.4079
0.238547
26.3212
1.01708
25.8225
2.37633
23.3883
5.43105
22.2129
4.12882
21.7305
3.27939
21.3449
3.38149
20.5502
4.44862
18.797
6.38601
16.6968
7.53527
14.2143
8.52406
11.6976
8.83252
9.34719
8.65658
7.20714
8.27395
5.25009
7.86297
3.42825
7.51452
1.69313
7.26944
7.14415
1.28119
5.58481
2.24579
5.22477
2.84874
4.66735
3.17802
4.06498
3.33368
3.50209
3.38981
3.01003
3.39361
2.59208
3.37322
2.24024
3.34486
1.94357
3.31772
1.69172
3.29688
1.47601
3.28505
1.28956
3.28356
1.12708
3.293
0.984581
3.31346
0.859065
3.34473
0.74831
3.38629
0.650616
3.43735
0.564658
3.49695
0.489415
3.56404
0.424109
3.63744
0.368147
3.71594
0.321046
3.79827
0.282374
3.88316
0.251688
3.96933
0.228495
4.0556
0.21221
4.1409
0.202137
4.22433
0.197499
4.30521
0.197479
4.38303
0.201293
4.45746
0.208242
4.52825
0.217775
4.59523
0.229511
4.65821
0.243215
4.71697
0.258747
4.77128
0.275991
4.82085
0.294795
4.86543
0.314895
4.90487
0.335914
4.93909
0.357352
4.96822
0.378622
4.9925
0.399065
5.01237
0.417982
5.02846
0.434712
5.04159
0.448635
5.05269
0.459166
5.06287
0.465804
5.07339
0.468168
5.0856
0.466015
5.10098
0.459265
5.12101
0.448036
5.14725
0.432659
5.18123
0.413675
5.22448
0.391835
5.27852
0.368101
5.3449
0.343604
5.42529
0.31968
5.52176
0.297931
5.63688
0.280259
5.77424
0.269028
5.93908
0.267242
6.13904
0.278774
6.38501
0.308728
6.68882
0.363022
7.04669
0.444097
7.38236
0.532573
7.51758
0.558655
7.42786
0.480235
7.30534
0.382784
7.22547
0.318439
7.17101
0.278889
7.12615
0.252729
7.08495
0.234473
7.04538
0.221457
7.00662
0.21219
6.96827
0.205774
6.93
0.201497
6.89154
0.198765
6.85276
0.197068
6.81356
0.195855
6.77398
0.194556
6.73417
0.192624
6.69445
0.189535
6.65521
0.184798
6.61696
0.178004
6.58026
0.168841
6.54571
0.157094
6.51394
0.142628
6.48552
0.125362
6.46101
0.10526
6.44098
0.0823102
6.42599
0.0564822
6.41655
0.0276921
6.4132
-0.0042005
6.41653
-0.039392
6.42714
-0.0781558
6.44569
-0.120868
6.47292
-0.168013
6.50967
-0.220185
6.55693
-0.278097
6.61583
-0.342617
6.68768
-0.414789
6.77403
-0.495844
6.87673
-0.58721
6.998
-0.690531
7.14048
-0.807681
7.30733
-0.940761
7.5024
-1.09205
7.73036
-1.26392
7.99694
-1.45868
8.30912
-1.67824
8.67535
-1.92353
9.10563
-2.19344
9.61104
-2.48281
10.2018
-2.77921
10.8822
-3.05777
11.6397
-3.27492
12.4278
-3.36664
13.1532
-3.26922
13.7076
-2.9959
14.089
-2.74444
14.3526
-2.66572
14.5722
-2.8525
14.8375
-3.38346
15.2857
-4.3677
16.1852
-5.9891
18.1287
-8.55544
22.4369
-12.48
31.5783
-17.5687
28.4378
-30.2408
27.5511
-9.225
27.1129
0.278796
27.1864
1.8817
27.6804
5.68358
28.8772
12.6215
22.0861
12.2221
21.3634
4.85148
21.8326
2.81027
22.412
2.80206
22.4876
4.37301
19.9463
8.92734
17.6856
9.79587
14.5228
11.6869
11.5217
11.8336
8.96456
11.2137
6.79616
10.4423
4.90164
9.7575
3.18316
9.23301
1.56784
8.88477
8.71199
0.921156
5.06752
1.68836
4.84755
2.24637
4.47651
2.61514
4.03717
2.84162
3.59039
2.97187
3.16997
3.04177
2.79004
3.07655
2.45338
3.09301
2.1574
3.10201
1.89746
3.11043
1.66866
3.12257
1.46651
3.14107
1.28724
3.16749
1.12781
3.2027
0.985822
3.24704
0.859406
3.30033
0.74705
3.3621
0.647566
3.43165
0.560051
3.50807
0.483831
3.59034
0.418407
3.67727
0.363377
3.76759
0.318368
3.85996
0.282978
3.95304
0.256693
4.04553
0.23884
4.13626
0.228559
4.22432
0.224844
4.30903
0.226606
4.38998
0.232775
4.46699
0.242423
4.53998
0.254862
4.60893
0.269673
4.67374
0.286665
4.73422
0.305803
4.79008
0.327073
4.84095
0.350384
4.88645
0.375476
4.9263
0.401899
4.96036
0.429032
4.98866
0.456088
5.01142
0.482194
5.0291
0.506476
5.04239
0.528088
5.05212
0.546223
5.05933
0.560124
5.06524
0.56915
5.07123
0.572797
5.07885
0.57072
5.08975
0.562786
5.10563
0.549131
5.12826
0.53017
5.15939
0.50661
5.20074
0.479425
5.25403
0.449831
5.32098
0.419295
5.40354
0.389565
5.50408
0.362715
5.62565
0.341201
5.77245
0.328047
5.95061
0.327096
6.16899
0.343253
6.43931
0.382633
6.76989
0.450909
7.13517
0.543832
7.40845
0.618157
7.43916
0.591964
7.33041
0.488394
7.241
0.401452
7.18592
0.347101
7.14485
0.311912
7.10789
0.287447
7.07193
0.269822
7.03611
0.257071
7.00021
0.248061
6.964
0.241978
6.92727
0.238197
6.88985
0.236193
6.85155
0.235386
6.81226
0.235128
6.77204
0.234756
6.73108
0.233576
6.68971
0.230891
6.64842
0.226072
6.6078
0.218613
6.56851
0.208131
6.53125
0.194376
6.49667
0.17722
6.46541
0.156625
6.43806
0.132616
6.41515
0.105223
6.3972
0.0744452
6.38466
0.0402208
6.37801
0.00242468
6.37776
-0.0391482
6.38442
-0.0848078
6.39855
-0.134983
6.42075
-0.19022
6.45176
-0.251195
6.49241
-0.318734
6.54366
-0.393848
6.60662
-0.477755
6.68266
-0.571897
6.77341
-0.677974
6.88085
-0.797978
7.0074
-0.934234
7.15604
-1.08941
7.33052
-1.26655
7.5356
-1.469
7.77739
-1.70044
8.06383
-1.96465
8.40545
-2.26514
8.81626
-2.60425
9.31464
-2.9812
9.92324
-3.38781
10.665
-3.79952
11.548
-4.15786
12.5252
-4.34393
13.4265
-4.17046
13.9591
-3.52851
14.1677
-2.95305
14.1658
-2.66383
14.0413
-2.72798
13.8533
-3.19545
13.6643
-4.17872
13.6189
-5.94371
14.2041
-9.1407
17.3481
-15.624
18.9062
-20.6694
49.4537
-41.3377
37.0549
-32.7414
28.7158
-6.41868
30.9883
14.0787
34.6183
17.6517
28.4778
8.5554
14.7155
2.19584
19.3222
3.02486
21.8244
3.74201
23.9829
7.21623
27.0419
14.503
20.8148
15.1545
19.5766
11.034
14.6695
16.594
10.9018
15.6013
8.19318
13.9224
6.11131
12.5242
4.37716
11.4917
2.83492
10.7753
1.39506
10.3246
10.107
0.701192
4.73
1.31732
4.58123
1.80702
4.31754
2.16836
3.98557
2.42121
3.6263
2.59193
3.26809
2.70511
2.9273
2.78056
2.61165
2.83308
2.32354
2.8732
2.0625
2.90828
1.82673
2.9433
1.61402
2.98163
1.42215
3.0255
1.24917
3.07629
1.0934
3.13468
0.953395
3.20085
0.827967
3.27459
0.71617
3.35543
0.617303
3.44265
0.530878
3.53531
0.456557
3.63226
0.394098
3.7322
0.343277
3.83368
0.303798
3.93519
0.275184
4.03525
0.256694
4.13255
0.247296
4.22608
0.245678
4.31519
0.250355
4.39963
0.259861
4.47943
0.272955
4.55479
0.288784
4.62592
0.306917
4.69288
0.327298
4.75549
0.350108
4.81339
0.375552
4.86604
0.403676
4.91288
0.434265
4.95344
0.466792
4.98742
0.500446
5.01476
0.534196
5.0357
0.566918
5.05071
0.597505
5.06052
0.624881
5.06602
0.648032
5.06836
0.666039
5.06889
0.678085
5.06916
0.683482
5.07092
0.681744
5.07609
0.672665
5.08667
0.656385
5.1047
0.633419
5.1322
0.604656
5.17115
0.571322
5.22349
0.534978
5.29125
0.497498
5.37669
0.461093
5.48257
0.42839
5.61249
0.402539
5.7715
0.387381
5.96677
0.387782
6.20837
0.409857
6.50758
0.460554
6.86282
0.54312
7.20949
0.637835
7.38225
0.670294
7.33559
0.589615
7.24347
0.48373
7.18665
0.412346
7.15073
0.367846
7.12039
0.337847
7.09027
0.316338
7.05918
0.300558
7.0271
0.289076
6.99412
0.28103
6.96022
0.27586
6.92527
0.273155
6.88904
0.272444
6.85129
0.273126
6.81189
0.27451
6.77086
0.275783
6.7284
0.276035
6.68489
0.27437
6.64096
0.269994
6.59731
0.262256
6.55476
0.250694
6.51409
0.235048
6.47608
0.215238
6.4414
0.19131
6.41066
0.163371
6.38437
0.131529
6.36297
0.0958458
6.34686
0.0563129
6.33644
0.0128311
6.3321
-0.0348093
6.33425
-0.0869448
6.34331
-0.14404
6.35978
-0.206689
6.38422
-0.275633
6.4173
-0.351792
6.45975
-0.436291
6.51248
-0.53049
6.57659
-0.636013
6.65341
-0.754802
6.7446
-0.889172
6.85222
-1.04187
6.97891
-1.21612
7.12807
-1.41571
7.30416
-1.64509
7.51318
-1.90944
7.76334
-2.2148
8.06634
-2.56815
8.43932
-2.97725
8.90803
-3.44992
9.51153
-3.99131
10.3067
-4.59466
11.3619
-5.21308
12.6987
-5.68078
14.0684
-5.54018
14.5346
-3.99465
14.4569
-2.87541
14.1017
-2.3086
13.5738
-2.20015
12.87
-2.49165
11.8993
-3.208
10.4219
-4.46633
7.72088
-6.4397
12.3027
-9.06601
-1.7622
-14.9151
58.0499
-6.6783
63.3777
-13.032
49.2132
1.46789
34.5613
11.1756
25.522
17.03
22.1182
22.7044
15.5445
25.1969
20.0394
28.9735
25.2986
29.5512
31.2697
19.3802
27.6934
13.7524
16.6943
12.7197
25.1366
29.7829
13.6769
28.0537
9.22285
20.0554
6.79505
16.3502
5.07875
14.2405
3.66076
12.9097
2.38429
12.0517
1.17748
11.5314
11.2845
0.552424
4.50244
1.05363
4.39379
1.47505
4.19512
1.80909
3.93416
2.06299
3.63839
2.25114
3.32981
2.38946
3.02365
2.49246
2.72926
2.57204
2.45166
2.63744
2.19309
2.69556
1.95408
2.75144
1.73427
2.80865
1.53288
2.86973
1.34896
2.93629
1.18153
3.00925
1.02964
3.08905
0.892459
3.17572
0.769347
3.269
0.659863
3.36833
0.56376
3.47285
0.480941
3.58144
0.411415
3.69272
0.355204
3.80507
0.312219
3.9167
0.282107
4.02585
0.264116
4.13093
0.257005
4.23076
0.25904
4.3247
0.268167
4.41273
0.282325
4.49526
0.299802
4.57293
0.31951
4.64631
0.341079
4.71569
0.364745
4.78093
0.391087
4.84151
0.420701
4.89663
0.45391
4.9454
0.490592
4.98709
0.530109
5.02117
0.571363
5.04749
0.61299
5.06629
0.653531
5.07809
0.691567
5.08367
0.725777
5.08403
0.754959
5.08041
0.778001
5.07428
0.793861
5.06742
0.801618
5.06184
0.800581
5.05981
0.790422
5.06371
0.771264
5.07594
0.743725
5.09887
0.708915
5.1348
0.668399
5.18601
0.62416
5.25484
0.57857
5.34399
0.534409
5.45672
0.494982
5.59733
0.464259
5.7719
0.44714
5.98884
0.449781
6.25907
0.479641
6.59015
0.543495
6.95753
0.63628
7.24195
0.708706
7.30157
0.673491
7.22971
0.561479
7.17208
0.470916
7.14215
0.415904
7.12073
0.381211
7.09888
0.357387
7.07449
0.340087
7.0477
0.327197
7.01906
0.317684
6.98895
0.311105
6.95751
0.307308
6.92455
0.30614
6.88972
0.307268
6.85267
0.310161
6.81316
0.314029
6.77112
0.317831
6.72673
0.320397
6.68052
0.320566
6.63322
0.317285
6.58575
0.309719
6.53911
0.297327
6.49428
0.279878
6.45215
0.257382
6.41346
0.230017
6.37882
0.198031
6.34869
0.161663
6.32344
0.121083
6.30338
0.076351
6.2888
0.0274015
6.27997
-0.0259751
6.27715
-0.0841297
6.28066
-0.147549
6.29083
-0.21686
6.30806
-0.292852
6.3328
-0.376509
6.36555
-0.469038
6.40696
-0.571897
6.4578
-0.686853
6.51904
-0.816042
6.5919
-0.962041
6.67797
-1.12795
6.77931
-1.31747
6.89869
-1.53509
7.03982
-1.78619
7.20781
-2.07741
7.40999
-2.41698
7.65724
-2.81543
7.96664
-3.28666
8.36664
-3.84993
8.90818
-4.53285
9.68824
-5.37472
10.8942
-6.41905
12.8393
-7.62592
15.614
-8.31485
15.6538
-4.03449
15.0237
-2.24536
14.2101
-1.495
13.2823
-1.27236
12.1536
-1.36299
10.6409
-1.69529
8.44851
-2.27391
5.09457
-3.08575
6.4536
-4.54
6.47463
-7.10366
51.6962
-4.11496
77.8776
9.88647
58.9209
20.4246
40.4157
29.6808
31.1965
41.687
24.6107
50.5748
19.3211
55.0583
20.6171
55.9717
15.1275
50.3104
25.6419
42.4427
26.6607
41.3948
33.7576
54.5432
23.4073
49.1616
5.67861
24.412
5.51764
20.2163
4.68541
17.1824
3.74787
15.1781
2.80284
13.8547
1.86398
12.9906
0.93059
12.4648
12.2151
0.443774
4.35078
0.854958
4.26622
1.21409
4.10829
1.51332
3.89445
1.75441
3.64354
1.94498
3.37235
2.09507
3.09404
2.21486
2.81804
2.31346
2.55056
2.39843
2.29547
2.47576
2.05493
2.55004
1.83
2.62473
1.62105
2.7023
1.428
2.78439
1.25045
2.87207
1.08793
2.96594
0.939978
3.06624
0.806268
3.1729
0.686643
3.28551
0.581137
3.40332
0.489968
3.52523
0.413497
3.64973
0.352118
3.77495
0.306094
3.89871
0.275341
4.01874
0.259194
4.13296
0.256194
4.23988
0.264026
4.33886
0.279751
4.4302
0.300351
4.51497
0.323369
4.5945
0.347403
4.66997
0.372251
4.74203
0.398696
4.81055
0.428035
4.87472
0.461557
4.93331
0.500061
4.98492
0.543553
5.02834
0.591201
5.06279
0.641494
5.08803
0.692544
5.10432
0.742397
5.1123
0.789258
5.11285
0.831582
5.10707
0.868009
5.09627
0.897238
5.08204
0.917955
5.06638
0.928907
5.05168
0.929089
5.04065
0.91796
5.03617
0.895581
5.04113
0.862698
5.05835
0.820744
5.09057
0.771726
5.14042
0.718157
5.21068
0.663031
5.30456
0.609843
5.426
0.56275
5.58021
0.526744
5.77454
0.508067
6.0187
0.514392
6.32293
0.554223
6.68293
0.630634
7.02996
0.717233
7.20674
0.728771
7.18956
0.628774
7.13915
0.519218
7.11707
0.451015
7.10745
0.411815
7.09691
0.38773
7.08158
0.371596
7.0616
0.359775
7.03819
0.350541
7.01248
0.343366
6.98516
0.338433
6.95634
0.336156
6.92568
0.336804
6.89261
0.34033
6.85654
0.346254
6.81696
0.353619
6.77368
0.361097
6.7269
0.367156
6.67724
0.370219
6.62565
0.368857
6.57336
0.361996
6.52166
0.349022
6.47179
0.329764
6.42479
0.304403
6.38148
0.27334
6.34246
0.237059
6.30811
0.195996
6.27871
0.150463
6.25443
0.100608
6.23542
0.0463989
6.22181
-0.0123706
6.21373
-0.0760596
6.21135
-0.145168
6.21484
-0.220342
6.22441
-0.3024
6.24027
-0.392356
6.26269
-0.491451
6.292
-0.601199
6.32861
-0.723451
6.37304
-0.860467
6.42599
-1.015
6.48844
-1.1904
6.5617
-1.39073
6.64759
-1.62096
6.7486
-1.88719
6.86824
-2.19705
7.01154
-2.5603
7.18601
-2.98991
7.40338
-3.50404
7.68372
-4.13027
8.06631
-4.91544
8.64391
-5.95233
9.68732
-7.46247
12.1504
-10.089
19.8943
-16.0588
17.4429
-17.4044
15.7741
-8.32161
14.4327
-3.00155
13.1917
-0.482336
11.8213
0.108838
10.0623
0.798475
7.63667
1.74365
3.64031
0.910603
3.88994
-1.22983
9.46333
-2.73596
65.6976
25.0765
88.4158
45.5102
68.177
40.6633
52.4219
45.436
40.0844
54.0245
29.0941
61.5651
20.2344
63.918
14.9559
61.2503
7.25981
58.0065
24.5941
63.2691
39.8091
64.4492
28.3759
55.5054
-1.34227
30.0855
1.48297
22.835
2.4837
19.2156
2.6811
16.985
2.42447
15.4347
1.93875
14.3404
1.33818
13.5912
0.680902
13.1221
12.896
0.359218
4.25686
0.697029
4.18719
1.00024
4.05507
1.26241
3.87216
1.48322
3.6519
1.66668
3.40726
1.81906
3.14944
1.94739
2.88735
2.05837
2.6277
2.15789
2.37528
2.25083
2.13336
2.3411
1.90404
2.43168
1.68854
2.52475
1.48737
2.62187
1.30067
2.72412
1.12835
2.83223
0.970262
2.94661
0.826362
3.06739
0.696768
3.19434
0.58182
3.32685
0.48211
3.46385
0.398454
3.60371
0.331775
3.7442
0.282908
3.88256
0.252292
4.01574
0.239558
4.14079
0.243082
4.25561
0.259744
4.35946
0.285184
4.45322
0.314772
4.539
0.344816
4.61934
0.373469
4.69642
0.400903
4.77137
0.428896
4.84407
0.460028
4.91323
0.49676
4.9768
0.540635
5.03257
0.59184
5.07864
0.649194
5.11384
0.710491
5.13788
0.773
5.15118
0.834025
5.15462
0.891324
5.14928
0.94321
5.1363
0.98829
5.11698
1.02513
5.09299
1.05208
5.06656
1.0674
5.04055
1.06957
5.01827
1.05765
5.00328
1.03162
4.99917
0.992412
5.00933
0.941895
5.037
0.882686
5.0853
0.818002
5.15749
0.751657
5.25747
0.688059
5.38999
0.632398
5.56154
0.59096
5.78087
0.571643
6.05853
0.583732
6.39934
0.634669
6.76953
0.713886
7.0415
0.7553
7.10674
0.679171
7.08001
0.553842
7.07094
0.468047
7.07787
0.422561
7.08337
0.399793
7.08077
0.388497
7.06976
0.382113
7.05236
0.37703
7.03101
0.371859
7.00754
0.366838
6.98288
0.363128
6.95699
0.362054
6.92921
0.364581
6.89854
0.37102
6.8639
0.380908
6.82444
0.393069
6.77974
0.405775
6.72996
0.416924
6.67587
0.424297
6.61879
0.425921
6.56039
0.420394
6.5024
0.407014
6.44642
0.385757
6.39372
0.357114
6.3452
0.321869
6.30139
0.280856
6.26258
0.234791
6.22885
0.184166
6.20022
0.129221
6.17665
0.0699515
6.15812
0.00614501
6.14463
-0.0625725
6.13617
-0.136714
6.13278
-0.216934
6.13445
-0.304049
6.14118
-0.399064
6.15294
-0.503207
6.16975
-0.617989
6.19159
-0.745277
6.2185
-0.887372
6.25059
-1.0471
6.28811
-1.22792
6.33148
-1.43409
6.38136
-1.67082
6.43874
-1.94455
6.50498
-2.26329
6.58193
-2.63727
6.67188
-3.07987
6.77715
-3.60931
6.89854
-4.25166
7.02941
-5.04631
7.13378
-6.0567
7.06079
-7.3895
6.18059
-9.20881
18.5487
-11.5654
26.5258
-22.339
21.0941
-22.6271
16.952
-13.4703
13.7828
-3.30789
12.511
4.07452
11.0075
5.38335
6.80362
1.83535
1.49988
0.0574419
2.3838
0.982413
37.2758
1.5571
86.1314
34.9818
83.5689
48.0727
72.9496
51.2826
61.0105
57.3752
47.625
67.4101
31.447
77.7431
17.5667
77.7984
11.7121
67.1049
12.5225
57.196
25.7741
50.0174
30.8654
39.3113
2.95593
18.5472
-8.59267
10.7128
-2.13644
16.3788
0.253077
16.8261
1.1308
16.1073
1.33016
15.2354
1.18951
14.4811
0.869095
13.9116
0.45484
13.5363
13.3509
0.289555
4.21069
0.564909
4.15014
0.817334
4.03399
1.04215
3.87055
1.23858
3.6699
1.40885
3.44241
1.55697
3.19777
1.68774
2.94435
1.80595
2.68906
1.91597
2.43727
2.02151
2.193
2.12559
1.95902
2.23051
1.7371
2.33805
1.52822
2.44955
1.33286
2.56603
1.15118
2.68833
0.983285
2.81702
0.829317
2.95245
0.689614
3.09463
0.564813
3.24319
0.455918
3.39717
0.364304
3.55484
0.291623
3.71358
0.239593
3.86983
0.209599
4.01926
0.202014
4.15746
0.2153
4.28105
0.245259
4.38905
0.285144
4.48326
0.32752
4.56765
0.366541
4.64678
0.399729
4.72441
0.428073
4.8025
0.455142
4.8808
0.485708
4.9571
0.524202
5.02801
0.573355
5.08992
0.633528
5.13993
0.702882
5.17635
0.77801
5.1989
0.854759
5.20848
0.929255
5.20651
0.998758
5.19436
1.06169
5.17314
1.11696
5.14393
1.16318
5.10831
1.19825
5.06873
1.21964
5.02864
1.22494
4.99224
1.21256
4.96408
1.1823
4.94866
1.13544
4.95013
1.07448
4.97231
1.00289
5.01895
0.924928
5.09389
0.845464
5.20181
0.770049
5.34855
0.705197
5.54222
0.658886
5.79296
0.640725
6.10947
0.660482
6.47855
0.717324
6.81095
0.765872
6.96537
0.711707
6.98141
0.57351
6.99421
0.463376
7.02546
0.405785
7.0551
0.383142
7.07207
0.380011
7.07439
0.385394
7.06467
0.391607
7.04719
0.394458
7.02599
0.393057
7.00383
0.389015
6.9818
0.385169
6.95952
0.384337
6.93565
0.388462
6.90842
0.398262
6.87607
0.413259
6.83715
0.431961
6.79089
0.452026
6.73733
0.470475
6.6775
0.484119
6.61327
0.490149
6.54701
0.48666
6.48115
0.472885
6.41778
0.44912
6.35848
0.416414
6.30418
0.376156
6.25533
0.329704
6.21195
0.278146
6.17391
0.222192
6.14095
0.16216
6.11285
0.0980386
6.08941
0.0295721
6.07048
-0.0436539
6.05595
-0.122172
6.04567
-0.206628
6.03944
-0.297804
6.03703
-0.396646
6.03816
-0.504319
6.04246
-0.622268
6.0495
-0.752296
6.05878
-0.896645
6.06977
-1.0581
6.08194
-1.2401
6.09475
-1.44689
6.10764
-1.68369
6.11999
-1.95689
6.131
-2.27431
6.13934
-2.64562
6.14244
-3.08296
6.1348
-3.60167
6.10389
-4.22073
6.01902
-4.96142
5.80099
-5.83868
5.24149
-6.83001
3.82399
-7.79133
7.77504
-8.35078
26.2377
-13.0064
30.2509
-10.2468
27.1144
-1.36718
21.1653
-0.569427
13.8198
3.5422
7.45948
8.74499
5.02571
16.3904
2.42485
25.398
2.95849
39.5041
70.7004
66.2167
99.2224
74.5197
86.7787
60.5164
79.0422
59.0191
71.0454
65.372
57.958
80.4976
31.5022
104.199
6.87326
102.427
1.80316
72.175
5.34385
53.6553
15.068
40.2933
10.1013
27.3257
-4.87842
15.0635
-2.92667
13.5957
-1.68914
15.1413
-0.465746
15.6027
0.25887
15.3827
0.575853
14.9184
0.620041
14.4369
0.493846
14.0378
0.269364
13.7608
13.6202
0.228998
4.20705
0.448762
4.15165
0.653897
4.04451
0.841493
3.89195
1.0111
3.70199
1.16421
3.48337
1.30356
3.24482
1.43244
2.99442
1.55416
2.73926
1.6717
2.4852
1.78754
2.23671
1.90366
1.99702
2.02163
1.76822
2.14269
1.55156
2.26787
1.34768
2.39814
1.15686
2.53436
0.979261
2.67732
0.815107
2.82764
0.664855
2.98574
0.529381
3.15158
0.410096
3.32449
0.309014
3.50281
0.228739
3.68359
0.172294
3.86225
0.142684
4.03255
0.141912
4.18741
0.169276
4.32093
0.219403
4.43142
0.281295
4.52229
0.342418
4.60084
0.393015
4.67512
0.429885
4.75148
0.455692
4.83307
0.477179
4.91929
0.502871
5.00626
0.540504
5.08818
0.594679
5.15928
0.665762
5.21506
0.750644
5.2531
0.843854
5.2734
0.93879
5.27798
1.02957
5.26944
1.11296
5.24963
1.18814
5.21936
1.25508
5.17901
1.31283
5.1297
1.35872
5.07403
1.38881
5.01626
1.39902
4.96198
1.3867
4.91721
1.35144
4.8877
1.29504
4.87854
1.22106
4.89435
1.13435
4.93949
1.04054
5.01848
0.945883
5.13696
0.85747
5.30224
0.783493
5.52406
0.733838
5.81271
0.719333
6.16631
0.744713
6.5271
0.780885
6.75678
0.736004
6.82717
0.583453
6.87128
0.439174
6.93662
0.357032
7.00281
0.326154
7.05197
0.330052
7.07746
0.353407
7.0806
0.381923
7.06752
0.404614
7.04579
0.416179
7.02195
0.416904
6.99999
0.410982
6.98097
0.404181
6.96364
0.40167
6.94545
0.406672
6.92342
0.420284
6.89477
0.441895
6.85722
0.469512
6.80934
0.499908
6.75098
0.528829
6.68353
0.551563
6.60978
0.563911
6.53323
0.563213
6.45738
0.54873
6.38508
0.521411
6.31822
0.483266
6.25773
0.436641
6.20377
0.383659
6.156
0.3259
6.11387
0.264299
6.07683
0.199194
6.04438
0.130476