/*--------------------------------*- C++ -*----------------------------------*\
| =========                 |                                                 |
| \\      /  F ield         | OpenFOAM: The Open Source CFD Toolbox           |
|  \\    /   O peration     | Version:  2.1.0                                 |
|   \\  /    A nd           | Web:      www.OpenFOAM.org                      |
|    \\/     M anipulation  |                                                 |
\*---------------------------------------------------------------------------*/
FoamFile
{
    version     2.0;
    format      ascii;
    class       volScalarField;
    location    "12045";
    object      po;
}
// * * * * * * * * * * * * * * * * * * * * * * * * * * * * * * * * * * * * * //

dimensions      [1 -1 -2 0 0 0 0];

internalField   nonuniform List<scalar> 
15000
(
6822.77
6804.18
6792.94
6785
6778.7
6773.28
6768.43
6763.95
6759.75
6755.74
6751.89
6748.15
6744.49
6740.89
6737.32
6733.77
6730.21
6726.64
6723.05
6719.42
6715.73
6712
6708.2
6704.34
6700.41
6696.4
6692.32
6688.17
6683.94
6679.64
6675.26
6670.82
6666.32
6661.75
6657.12
6652.43
6647.7
6642.92
6638.09
6633.22
6628.32
6623.39
6618.44
6613.45
6608.45
6603.43
6598.38
6593.32
6588.24
6583.14
6578.02
6572.87
6567.69
6562.46
6557.19
6551.87
6546.47
6541
6535.45
6529.78
6524
6518.07
6511.98
6505.7
6499.18
6492.37
6485.22
6477.73
6470.04
6462.45
6455.07
6447.81
6440.64
6433.52
6426.45
6419.43
6412.45
6405.51
6398.61
6391.76
6384.94
6378.16
6371.41
6364.71
6358.04
6351.4
6344.8
6338.22
6331.67
6325.15
6318.64
6312.15
6305.66
6299.18
6292.7
6286.2
6279.68
6273.14
6266.56
6259.93
6253.24
6246.47
6239.62
6232.65
6225.56
6218.32
6210.9
6203.28
6195.43
6187.31
6178.89
6170.11
6160.94
6151.32
6141.22
6130.59
6119.39
6107.59
6095.17
6082.13
6068.45
6054.12
6039.09
6023.28
6006.56
5988.78
5969.75
5949.32
5927.45
5904.3
5880.2
5855.54
5830.63
5805.77
5781.23
5757.27
5734.12
5711.89
5690.67
5670.55
5651.73
5634.42
5618.86
5605.21
5593.57
5583.96
5576.36
5570.73
5567
5565.16
6804.15
6796.82
6789.44
6783.01
6777.38
6772.33
6767.69
6763.36
6759.26
6755.34
6751.55
6747.86
6744.24
6740.67
6737.13
6733.6
6730.07
6726.52
6722.94
6719.32
6715.65
6711.93
6708.14
6704.28
6700.35
6696.35
6692.27
6688.12
6683.89
6679.59
6675.22
6670.78
6666.27
6661.7
6657.07
6652.38
6647.64
6642.85
6638.02
6633.15
6628.25
6623.32
6618.35
6613.37
6608.36
6603.34
6598.3
6593.23
6588.16
6583.06
6577.94
6572.79
6567.61
6562.39
6557.12
6551.8
6546.41
6540.95
6535.4
6529.74
6523.95
6518.03
6511.94
6505.64
6499.1
6492.27
6485.08
6477.55
6469.89
6462.36
6455
6447.76
6440.59
6433.48
6426.41
6419.39
6412.41
6405.47
6398.57
6391.72
6384.9
6378.12
6371.38
6364.67
6358
6351.37
6344.77
6338.2
6331.65
6325.13
6318.63
6312.14
6305.66
6299.18
6292.71
6286.22
6279.71
6273.18
6266.61
6259.99
6253.31
6246.56
6239.72
6232.78
6225.71
6218.49
6211.1
6203.52
6195.7
6187.62
6179.24
6170.5
6161.38
6151.81
6141.76
6131.16
6119.99
6108.2
6095.8
6082.77
6069.11
6054.82
6039.87
6024.18
6007.63
5990.03
5971.15
5950.76
5928.74
5905.24
5880.77
5855.78
5830.59
5805.46
5780.65
5756.46
5733.2
5710.9
5689.56
5669.26
5650.2
5632.68
5616.95
5603.2
5591.53
5581.94
5574.39
5568.81
5565.13
5563.31
6792.83
6789.37
6784.68
6779.79
6775.06
6770.57
6766.3
6762.23
6758.32
6754.54
6750.87
6747.28
6743.74
6740.24
6736.75
6733.27
6729.79
6726.27
6722.73
6719.13
6715.49
6711.78
6708.01
6704.17
6700.25
6696.26
6692.18
6688.04
6683.81
6679.51
6675.13
6670.69
6666.17
6661.6
6656.96
6652.27
6647.52
6642.73
6637.89
6633.01
6628.1
6623.16
6618.19
6613.2
6608.19
6603.16
6598.12
6593.06
6587.98
6582.88
6577.77
6572.62
6567.45
6562.24
6556.98
6551.67
6546.29
6540.84
6535.29
6529.64
6523.86
6517.93
6511.83
6505.52
6498.94
6492.05
6484.8
6477.25
6469.64
6462.18
6454.87
6447.65
6440.49
6433.38
6426.32
6419.3
6412.33
6405.39
6398.49
6391.64
6384.82
6378.04
6371.3
6364.6
6357.94
6351.31
6344.71
6338.14
6331.6
6325.09
6318.6
6312.12
6305.65
6299.19
6292.73
6286.26
6279.77
6273.25
6266.71
6260.11
6253.46
6246.74
6239.94
6233.03
6226
6218.84
6211.51
6203.98
6196.24
6188.23
6179.93
6171.29
6162.26
6152.79
6142.83
6132.31
6121.19
6109.45
6097.05
6084.02
6070.39
6056.18
6041.39
6025.95
6009.75
5992.56
5974.06
5953.83
5931.51
5907.15
5881.87
5856.22
5830.48
5804.81
5779.44
5754.74
5731.31
5708.94
5687.4
5666.72
5647.15
5629.15
5613.06
5599.12
5587.41
5577.89
5570.46
5565
5561.41
5559.63
6784.79
6782.84
6779.69
6775.99
6772.11
6768.22
6764.38
6760.64
6756.98
6753.4
6749.89
6746.43
6743
6739.6
6736.2
6732.79
6729.37
6725.91
6722.41
6718.86
6715.25
6711.58
6707.83
6704
6700.1
6696.12
6692.05
6687.91
6683.68
6679.38
6675
6670.55
6666.03
6661.45
6656.8
6652.1
6647.34
6642.54
6637.69
6632.8
6627.87
6622.92
6617.94
6612.94
6607.93
6602.89
6597.84
6592.78
6587.71
6582.62
6577.51
6572.37
6567.21
6562.01
6556.77
6551.47
6546.11
6540.67
6535.13
6529.48
6523.71
6517.78
6511.66
6505.32
6498.69
6491.73
6484.41
6476.85
6469.33
6461.95
6454.68
6447.48
6440.34
6433.24
6426.19
6419.17
6412.2
6405.27
6398.38
6391.52
6384.71
6377.93
6371.19
6364.49
6357.83
6351.21
6344.62
6338.06
6331.53
6325.03
6318.55
6312.09
6305.64
6299.2
6292.76
6286.31
6279.85
6273.36
6266.85
6260.29
6253.68
6247.01
6240.25
6233.4
6226.44
6219.35
6212.1
6204.67
6197.03
6189.14
6180.97
6172.47
6163.59
6154.27
6144.44
6134.05
6123.03
6111.33
6098.94
6085.89
6072.26
6058.13
6043.55
6028.49
6012.85
5996.39
5978.69
5959
5936.31
5909.99
5883.33
5856.75
5830.29
5803.88
5777.56
5751.74
5728.35
5706.14
5684.41
5663.06
5642.51
5623.72
5607.02
5592.81
5581.11
5571.76
5564.55
5559.3
5555.88
5554.18
6778.35
6777.07
6774.82
6771.98
6768.8
6765.46
6762.07
6758.68
6755.31
6751.96
6748.65
6745.35
6742.06
6738.78
6735.49
6732.17
6728.83
6725.44
6722
6718.51
6714.94
6711.31
6707.59
6703.79
6699.91
6695.94
6691.88
6687.74
6683.52
6679.21
6674.83
6670.37
6665.84
6661.25
6656.59
6651.87
6647.1
6642.28
6637.42
6632.51
6627.57
6622.6
6617.61
6612.6
6607.57
6602.53
6597.48
6592.41
6587.34
6582.26
6577.15
6572.03
6566.89
6561.7
6556.48
6551.2
6545.86
6540.43
6534.91
6529.27
6523.5
6517.56
6511.42
6505.04
6498.35
6491.3
6483.92
6476.4
6468.97
6461.67
6454.44
6447.27
6440.14
6433.06
6426.01
6419.01
6412.04
6405.11
6398.22
6391.36
6384.55
6377.78
6371.04
6364.35
6357.69
6351.08
6344.5
6337.95
6331.44
6324.95
6318.49
6312.05
6305.62
6299.21
6292.79
6286.38
6279.95
6273.5
6267.03
6260.52
6253.96
6247.35
6240.66
6233.89
6227.01
6220.01
6212.87
6205.56
6198.06
6190.33
6182.33
6174.03
6165.35
6156.24
6146.63
6136.43
6125.55
6113.91
6101.48
6088.33
6074.62
6060.53
6046.18
6031.61
6016.77
6001.48
5985.3
5967.17
5944.73
5913.16
5884.72
5857.17
5830.05
5802.87
5775.19
5746.31
5724.22
5702.86
5681.03
5658.62
5636.13
5616.18
5598.5
5583.97
5572.45
5563.49
5556.69
5551.79
5548.61
5547.04
6772.77
6771.85
6770.16
6767.91
6765.3
6762.45
6759.48
6756.44
6753.36
6750.27
6747.17
6744.06
6740.94
6737.79
6734.63
6731.42
6728.18
6724.88
6721.52
6718.08
6714.58
6710.99
6707.31
6703.54
6699.68
6695.73
6691.68
6687.55
6683.32
6679.01
6674.62
6670.16
6665.62
6661.01
6656.33
6651.6
6646.81
6641.97
6637.08
6632.15
6627.19
6622.21
6617.19
6612.17
6607.12
6602.07
6597.01
6591.95
6586.87
6581.8
6576.71
6571.6
6566.47
6561.31
6556.11
6550.86
6545.54
6540.13
6534.63
6529
6523.23
6517.28
6511.11
6504.67
6497.9
6490.77
6483.36
6475.92
6468.59
6461.35
6454.16
6447.02
6439.91
6432.84
6425.8
6418.8
6411.84
6404.91
6398.02
6391.17
6384.36
6377.58
6370.85
6364.16
6357.52
6350.91
6344.34
6337.81
6331.31
6324.85
6318.41
6311.99
6305.6
6299.21
6292.83
6286.45
6280.07
6273.67
6267.25
6260.8
6254.31
6247.76
6241.16
6234.47
6227.7
6220.82
6213.81
6206.66
6199.33
6191.79
6184.01
6175.95
6167.54
6158.73
6149.41
6139.49
6128.82
6117.28
6104.75
6091.32
6077.37
6063.2
6049.03
6034.99
6021.14
6007.47
5993.85
5979.65
5962.3
5943.4
5893.94
5856.89
5828.17
5797.18
5762.57
5734.09
5719.37
5700.05
5678.23
5654.24
5627.2
5606.39
5586.81
5572.14
5561.24
5553.04
5546.93
5542.56
5539.72
5538.33
6767.7
6767
6765.68
6763.87
6761.71
6759.28
6756.69
6753.99
6751.21
6748.37
6745.5
6742.59
6739.65
6736.67
6733.64
6730.57
6727.43
6724.23
6720.96
6717.6
6714.16
6710.62
6706.99
6703.26
6699.42
6695.49
6691.45
6687.32
6683.09
6678.78
6674.38
6669.9
6665.35
6660.72
6656.03
6651.27
6646.46
6641.59
6636.68
6631.73
6626.74
6621.72
6616.69
6611.64
6606.58
6601.51
6596.44
6591.37
6586.3
6581.23
6576.16
6571.07
6565.97
6560.83
6555.66
6550.44
6545.15
6539.77
6534.29
6528.68
6522.9
6516.94
6510.73
6504.22
6497.36
6490.15
6482.77
6475.43
6468.19
6461
6453.85
6446.73
6439.64
6432.58
6425.55
6418.56
6411.6
6404.67
6397.79
6390.93
6384.12
6377.35
6370.62
6363.94
6357.3
6350.7
6344.14
6337.63
6331.15
6324.71
6318.3
6311.92
6305.56
6299.21
6292.87
6286.54
6280.21
6273.86
6267.5
6261.12
6254.7
6248.24
6241.73
6235.15
6228.5
6221.75
6214.9
6207.92
6200.79
6193.49
6185.98
6178.21
6170.15
6161.71
6152.8
6143.29
6132.98
6121.62
6108.92
6094.85
6080.32
6065.86
6051.76
6038.19
6025.32
6013.42
6003
5995.27
5982.97
5984.73
5926.68
5863.31
5814.09
5779.53
5754.01
5731.89
5716.35
5696.31
5671.01
5639.74
5612.05
5595.35
5570.21
5556.54
5547.32
5540.52
5535.44
5531.78
5529.4
5528.22
6762.97
6762.42
6761.36
6759.89
6758.08
6756.02
6753.77
6751.38
6748.88
6746.31
6743.67
6740.98
6738.23
6735.42
6732.55
6729.61
6726.6
6723.51
6720.34
6717.07
6713.7
6710.23
6706.65
6702.95
6699.15
6695.23
6691.21
6687.08
6682.84
6678.52
6674.11
6669.61
6665.04
6660.39
6655.68
6650.9
6646.05
6641.16
6636.21
6631.23
6626.2
6621.16
6616.09
6611.01
6605.93
6600.84
6595.76
6590.69
6585.62
6580.56
6575.5
6570.44
6565.36
6560.26
6555.13
6549.94
6544.69
6539.34
6533.89
6528.29
6522.52
6516.53
6510.27
6503.68
6496.72
6489.48
6482.18
6474.95
6467.78
6460.63
6453.51
6446.41
6439.34
6432.29
6425.27
6418.28
6411.33
6404.4
6397.51
6390.66
6383.85
6377.07
6370.35
6363.67
6357.03
6350.45
6343.91
6337.42
6330.96
6324.55
6318.17
6311.82
6305.5
6299.2
6292.91
6286.63
6280.35
6274.07
6267.78
6261.47
6255.14
6248.77
6242.36
6235.91
6229.39
6222.8
6216.12
6209.34
6202.44
6195.4
6188.19
6180.78
6173.13
6165.16
6156.79
6147.88
6138.2
6127.3
6114.46
6098.85
6083.19
6068.17
6053.96
6040.68
6028.52
6017.88
6009.43
6004.34
5997.89
5991.41
5939.72
5861.84
5802.92
5762.5
5731.31
5706.69
5687.37
5666.76
5651.63
5625.99
5599.33
5565.57
5542.16
5536.48
5530.96
5526.28
5522.53
5519.73
5517.86
5516.93
6758.47
6758.02
6757.17
6755.95
6754.44
6752.69
6750.74
6748.65
6746.43
6744.12
6741.72
6739.24
6736.69
6734.07
6731.37
6728.58
6725.71
6722.74
6719.68
6716.51
6713.22
6709.82
6706.29
6702.64
6698.87
6694.97
6690.95
6686.82
6682.58
6678.24
6673.81
6669.29
6664.7
6660.03
6655.29
6650.48
6645.6
6640.67
6635.68
6630.65
6625.59
6620.5
6615.4
6610.29
6605.17
6600.07
6594.97
6589.89
6584.82
6579.77
6574.73
6569.69
6564.65
6559.59
6554.5
6549.36
6544.15
6538.85
6533.42
6527.84
6522.07
6516.05
6509.73
6503.04
6496.01
6488.81
6481.62
6474.48
6467.36
6460.25
6453.16
6446.07
6439.01
6431.97
6424.96
6417.98
6411.02
6404.09
6397.2
6390.35
6383.53
6376.75
6370.03
6363.35
6356.72
6350.15
6343.63
6337.16
6330.73
6324.35
6318.01
6311.7
6305.42
6299.17
6292.93
6286.71
6280.5
6274.29
6268.07
6261.85
6255.61
6249.34
6243.05
6236.72
6230.35
6223.92
6217.44
6210.87
6204.23
6197.48
6190.61
6183.6
6176.41
6169.01
6161.32
6153.26
6144.61
6134.93
6122.78
6102.88
6085.44
6069.67
6055.23
6042.04
6030.22
6020.16
6012.52
6008.88
6004.99
5995.53
5929.83
5841.41
5773.24
5720.81
5680.73
5651.64
5631.4
5616.45
5609.19
5584.59
5544.78
5516.41
5517.75
5516.27
5513.78
5511.1
5508.68
5506.74
5505.4
5504.72
6754.12
6753.76
6753.06
6752.06
6750.8
6749.31
6747.65
6745.83
6743.88
6741.82
6739.66
6737.41
6735.07
6732.64
6730.12
6727.49
6724.77
6721.94
6718.99
6715.92
6712.73
6709.4
6705.94
6702.34
6698.59
6694.71
6690.69
6686.55
6682.3
6677.94
6673.48
6668.94
6664.33
6659.63
6654.86
6650.01
6645.1
6640.12
6635.09
6630.01
6624.9
6619.76
6614.61
6609.45
6604.31
6599.17
6594.05
6588.96
6583.89
6578.85
6573.83
6568.83
6563.83
6558.82
6553.79
6548.7
6543.54
6538.28
6532.89
6527.33
6521.55
6515.49
6509.09
6502.32
6495.28
6488.18
6481.1
6474.03
6466.95
6459.86
6452.78
6445.71
6438.66
6431.63
6424.62
6417.64
6410.68
6403.75
6396.86
6389.99
6383.17
6376.39
6369.66
6362.98
6356.36
6349.8
6343.3
6336.85
6330.46
6324.11
6317.81
6311.55
6305.32
6299.12
6292.94
6286.79
6280.64
6274.51
6268.37
6262.24
6256.1
6249.94
6243.77
6237.58
6231.36
6225.11
6218.83
6212.49
6206.11
6199.67
6193.17
6186.59
6179.92
6173.14
6166.24
6159.21
6152.08
6145.02
6138.84
6120.29
6093.76
6072.67
6055.71
6041.93
6029.42
6018.41
6011.61
6010.11
6007.73
5970.45
5884.32
5800.75
5727.8
5666.79
5619.17
5587.72
5570.15
5558.44
5545.92
5520.14
5489.28
5486.32
5494.91
5497.05
5496.8
5495.67
5494.34
5493.15
5492.28
5491.82
6749.86
6749.57
6749
6748.19
6747.15
6745.91
6744.5
6742.94
6741.25
6739.45
6737.53
6735.51
6733.38
6731.15
6728.82
6726.37
6723.8
6721.11
6718.29
6715.34
6712.25
6709
6705.61
6702.05
6698.34
6694.47
6690.45
6686.29
6682.01
6677.62
6673.14
6668.57
6663.92
6659.2
6654.4
6649.52
6644.56
6639.53
6634.44
6629.3
6624.13
6618.93
6613.72
6608.51
6603.32
6598.14
6593
6587.89
6582.82
6577.79
6572.8
6567.84
6562.89
6557.94
6552.97
6547.95
6542.85
6537.65
6532.3
6526.76
6520.97
6514.86
6508.38
6501.57
6494.6
6487.62
6480.63
6473.6
6466.55
6459.48
6452.4
6445.34
6438.29
6431.26
6424.26
6417.28
6410.32
6403.38
6396.47
6389.6
6382.76
6375.97
6369.23
6362.56
6355.94
6349.4
6342.91
6336.5
6330.14
6323.83
6317.58
6311.37
6305.19
6299.05
6292.94
6286.85
6280.78
6274.72
6268.68
6262.64
6256.6
6250.56
6244.52
6238.47
6232.41
6226.34
6220.26
6214.17
6208.06
6201.94
6195.81
6189.67
6183.53
6177.39
6171.29
6165.27
6159.47
6154.22
6150.4
6142.63
6116.39
6086.14
6059.02
6037.86
6024.04
6016.58
6011.55
6009.13
6006.17
5935.47
5836.25
5749.47
5670.43
5599.38
5541.42
5509.92
5503.05
5501.24
5495.9
5480.83
5470.73
5475.61
5478.54
5480.22
5480.69
5480.43
5479.86
5479.24
5478.74
5478.47
6745.65
6745.42
6744.97
6744.32
6743.48
6742.46
6741.3
6740
6738.56
6737.01
6735.34
6733.55
6731.65
6729.63
6727.48
6725.21
6722.82
6720.28
6717.61
6714.78
6711.79
6708.64
6705.32
6701.81
6698.13
6694.27
6690.23
6686.05
6681.73
6677.29
6672.77
6668.17
6663.5
6658.74
6653.91
6648.99
6643.99
6638.9
6633.74
6628.52
6623.27
6618
6612.72
6607.45
6602.2
6596.98
6591.8
6586.67
6581.6
6576.58
6571.62
6566.7
6561.81
6556.94
6552.04
6547.1
6542.08
6536.95
6531.64
6526.12
6520.31
6514.14
6507.61
6500.86
6494.03
6487.16
6480.22
6473.22
6466.17
6459.09
6452.01
6444.94
6437.9
6430.87
6423.87
6416.89
6409.93
6402.98
6396.06
6389.17
6382.31
6375.5
6368.75
6362.07
6355.46
6348.92
6342.47
6336.08
6329.76
6323.5
6317.3
6311.14
6305.03
6298.95
6292.91
6286.89
6280.9
6274.93
6268.98
6263.03
6257.11
6251.18
6245.27
6239.37
6233.47
6227.58
6221.71
6215.85
6210.01
6204.21
6198.45
6192.75
6187.13
6181.61
6176.25
6171.11
6166.3
6162.02
6158.75
6155.63
6126.63
6087.5
6059.59
6034.32
6015.29
6000.19
5986.15
5969.62
5939.95
5860.95
5775.73
5690.45
5605.05
5518.88
5437.22
5407.49
5430.87
5447.59
5455.61
5453.51
5455.67
5462.01
5463.39
5464.62
5465.31
5465.51
5465.42
5465.2
5464.98
5464.85
6741.44
6741.27
6740.93
6740.42
6739.77
6738.98
6738.06
6737
6735.82
6734.52
6733.1
6731.55
6729.88
6728.07
6726.14
6724.06
6721.84
6719.47
6716.94
6714.25
6711.38
6708.33
6705.09
6701.64
6697.99
6694.13
6690.07
6685.83
6681.44
6676.95
6672.38
6667.74
6663.04
6658.27
6653.41
6648.45
6643.39
6638.23
6632.99
6627.68
6622.33
6616.97
6611.61
6606.26
6600.95
6595.67
6590.44
6585.28
6580.2
6575.2
6570.27
6565.41
6560.59
6555.8
6551
6546.16
6541.23
6536.16
6530.91
6525.4
6519.56
6513.36
6506.88
6500.27
6493.59
6486.8
6479.9
6472.89
6465.81
6458.71
6451.61
6444.53
6437.48
6430.46
6423.47
6416.49
6409.52
6402.56
6395.62
6388.7
6381.81
6374.97
6368.2
6361.5
6354.89
6348.37
6341.94
6335.6
6329.33
6323.12
6316.97
6310.88
6304.83
6298.82
6292.85
6286.91
6281
6275.12
6269.26
6263.42
6257.6
6251.8
6246.02
6240.26
6234.52
6228.81
6223.14
6217.51
6211.94
6206.44
6201.04
6195.76
6190.62
6185.68
6180.99
6176.61
6172.6
6168.79
6164.08
6162.93
6139.02
6094.74
6057.53
6024.52
5995.14
5967.52
5938.86
5905.08
5859.32
5792.65
5715.28
5631.54
5540.46
5433.87
5345.89
5328.27
5365.36
5402.63
5426.11
5436.06
5441.66
5447.28
5448.41
5449.56
5450.41
5450.89
5451.11
5451.16
5451.13
5451.1
6737.2
6737.08
6736.84
6736.49
6736.02
6735.45
6734.76
6733.96
6733.04
6732
6730.84
6729.53
6728.1
6726.52
6724.79
6722.91
6720.88
6718.68
6716.32
6713.77
6711.04
6708.1
6704.95
6701.56
6697.94
6694.07
6689.97
6685.65
6681.17
6676.59
6671.95
6667.27
6662.55
6657.77
6652.9
6647.91
6642.79
6637.55
6632.2
6626.77
6621.3
6615.83
6610.37
6604.94
6599.54
6594.19
6588.91
6583.7
6578.6
6573.61
6568.72
6563.93
6559.21
6554.52
6549.83
6545.1
6540.27
6535.29
6530.09
6524.59
6518.74
6512.59
6506.28
6499.87
6493.31
6486.58
6479.68
6472.63
6465.49
6458.32
6451.18
6444.08
6437.03
6430.03
6423.05
6416.08
6409.11
6402.13
6395.15
6388.19
6381.26
6374.38
6367.57
6360.85
6354.24
6347.74
6341.34
6335.04
6328.82
6322.68
6316.6
6310.57
6304.59
6298.66
6292.76
6286.9
6281.08
6275.29
6269.52
6263.79
6258.08
6252.39
6246.74
6241.12
6235.54
6230
6224.52
6219.11
6213.79
6208.58
6203.51
6198.61
6193.92
6189.5
6185.41
6181.76
6178.69
6176.48
6171.64
6168.93
6143.04
6094.9
6051.26
6011.09
5973.23
5935.89
5896.69
5852.53
5799.62
5735.03
5661.19
5579.99
5491.36
5392.68
5330.25
5322.29
5335.4
5371.46
5403.96
5420.7
5423.97
5431.79
5433.39
5434.81
5435.86
5436.55
5436.96
5437.19
5437.29
5437.33
6732.88
6732.81
6732.68
6732.47
6732.2
6731.85
6731.41
6730.87
6730.22
6729.46
6728.55
6727.51
6726.31
6724.97
6723.46
6721.79
6719.96
6717.95
6715.75
6713.37
6710.78
6707.97
6704.92
6701.62
6698.03
6694.15
6689.97
6685.52
6680.89
6676.17
6671.45
6666.74
6662.03
6657.27
6652.41
6647.4
6642.22
6636.87
6631.38
6625.8
6620.18
6614.57
6609
6603.47
6597.98
6592.54
6587.17
6581.91
6576.78
6571.79
6566.96
6562.25
6557.64
6553.08
6548.53
6543.93
6539.21
6534.32
6529.16
6523.68
6517.9
6511.95
6505.88
6499.66
6493.22
6486.53
6479.6
6472.46
6465.2
6457.92
6450.7
6443.58
6436.54
6429.57
6422.63
6415.67
6408.69
6401.69
6394.68
6387.66
6380.66
6373.71
6366.85
6360.09
6353.48
6346.99
6340.64
6334.39
6328.25
6322.17
6316.17
6310.21
6304.31
6298.45
6292.63
6286.86
6281.12
6275.42
6269.76
6264.12
6258.53
6252.96
6247.43
6241.95
6236.51
6231.14
6225.83
6220.62
6215.53
6210.58
6205.81
6201.25
6196.95
6192.98
6189.4
6186.33
6183.91
6182.4
6179.41
6174.42
6144.12
6090.58
6041.5
5995.37
5950.78
5906.12
5859.5
5808.72
5751.58
5686.68
5614.45
5535.87
5452.31
5367.24
5320.64
5316.03
5314.17
5343.87
5385.66
5407.28
5408.44
5415.39
5418.56
5420.43
5421.67
5422.49
5423.01
5423.33
5423.51
5423.58
6728.43
6728.42
6728.4
6728.35
6728.28
6728.17
6727.99
6727.74
6727.38
6726.89
6726.27
6725.49
6724.55
6723.44
6722.17
6720.72
6719.09
6717.27
6715.27
6713.06
6710.63
6707.97
6705.05
6701.84
6698.31
6694.42
6690.15
6685.48
6680.6
6675.66
6670.84
6666.11
6661.45
6656.76
6651.96
6646.96
6641.7
6636.22
6630.55
6624.76
6618.93
6613.17
6607.48
6601.85
6596.26
6590.71
6585.22
6579.86
6574.68
6569.7
6564.93
6560.33
6555.86
6551.46
6547.07
6542.62
6538.03
6533.22
6528.12
6522.73
6517.17
6511.51
6505.7
6499.68
6493.38
6486.74
6479.74
6472.41
6464.93
6457.45
6450.13
6442.98
6435.99
6429.09
6422.21
6415.29
6408.31
6401.27
6394.2
6387.1
6380.01
6372.96
6366.01
6359.21
6352.58
6346.12
6339.83
6333.66
6327.59
6321.6
6315.68
6309.8
6303.98
6298.2
6292.47
6286.78
6281.13
6275.52
6269.96
6264.43
6258.94
6253.49
6248.08
6242.73
6237.43
6232.2
6227.05
6222.02
6217.13
6212.41
6207.89
6203.63
6199.67
6196.06
6192.89
6190.24
6188.24
6187.07
6185.23
6177.89
6139.58
6081.8
6028.8
5978.12
5928.4
5878.32
5826.45
5771.26
5711.31
5645.65
5574.05
5496.75
5414.78
5339.38
5310
5309.66
5308.58
5330.59
5371.55
5393.91
5400.12
5402.77
5405.03
5406.69
5407.88
5408.72
5409.27
5409.62
5409.83
5409.92
6723.83
6723.87
6723.97
6724.09
6724.24
6724.39
6724.5
6724.55
6724.5
6724.32
6723.99
6723.49
6722.82
6721.96
6720.92
6719.7
6718.28
6716.67
6714.86
6712.85
6710.61
6708.12
6705.36
6702.27
6698.84
6694.96
6690.61
6685.54
6680.26
6674.94
6670.03
6665.33
6660.79
6656.27
6651.63
6646.68
6641.31
6635.65
6629.74
6623.65
6617.52
6611.57
6605.78
6600.08
6594.38
6588.69
6583.03
6577.51
6572.24
6567.27
6562.58
6558.13
6553.84
6549.64
6545.44
6541.15
6536.69
6531.97
6526.98
6521.84
6516.61
6511.27
6505.76
6499.99
6493.88
6487.31
6480.19
6472.53
6464.65
6456.84
6449.37
6442.23
6435.35
6428.59
6421.83
6414.96
6407.97
6400.89
6393.75
6386.55
6379.32
6372.12
6365.02
6358.14
6351.5
6345.1
6338.88
6332.82
6326.86
6320.97
6315.14
6309.35
6303.6
6297.9
6292.25
6286.65
6281.1
6275.59
6270.12
6264.7
6259.32
6253.98
6248.69
6243.45
6238.27
6233.17
6228.16
6223.28
6218.55
6214.02
6209.73
6205.71
6202.02
6198.71
6195.85
6193.49
6191.74
6190.72
6189.63
6170.26
6122.38
6068.23
6013.76
5959.92
5906.37
5852.31
5796.74
5738.55
5676.76
5610.56
5539.36
5462.28
5376.79
5315.23
5304.81
5304.29
5304.91
5319.69
5357.38
5381.9
5389.19
5390.54
5392.09
5393.43
5394.47
5395.22
5395.73
5396.07
5396.26
5396.35
6719
6719.11
6719.33
6719.65
6720.04
6720.48
6720.92
6721.32
6721.61
6721.77
6721.75
6721.55
6721.14
6720.54
6719.74
6718.74
6717.55
6716.15
6714.56
6712.75
6710.72
6708.44
6705.86
6702.94
6699.66
6695.83
6691.61
6685.72
6679.85
6673.69
6668.89
6664.28
6659.99
6655.81
6651.49
6646.7
6641.13
6635.21
6628.99
6622.48
6615.81
6609.68
6603.89
6598.18
6592.39
6586.5
6580.57
6574.78
6569.37
6564.42
6559.86
6555.6
6551.55
6547.59
6543.61
6539.51
6535.18
6530.61
6525.88
6521.1
6516.23
6511.24
6506.07
6500.64
6494.83
6488.44
6481.19
6472.86
6464.3
6455.87
6448.29
6441.23
6434.57
6428.1
6421.56
6414.74
6407.73
6400.59
6393.35
6386.02
6378.6
6371.16
6363.82
6356.84
6350.2
6343.87
6337.79
6331.88
6326.05
6320.29
6314.56
6308.85
6303.18
6297.56
6291.99
6286.48
6281.02
6275.61
6270.24
6264.92
6259.65
6254.42
6249.23
6244.11
6239.04
6234.05
6229.15
6224.38
6219.78
6215.4
6211.28
6207.47
6204
6200.93
6198.29
6196.14
6194.5
6193.43
6192.52
6165.87
6111.45
6054.98
5998.1
5941.43
5884.85
5827.82
5769.62
5709.47
5646.61
5580.46
5510.53
5436.24
5356.25
5307.55
5301.59
5301
5302.22
5316.79
5349.27
5369.86
5377.02
5378.11
5379.36
5380.46
5381.33
5381.96
5382.38
5382.65
5382.8
5382.87
6713.9
6714.08
6714.44
6714.96
6715.64
6716.42
6717.25
6718.04
6718.72
6719.24
6719.56
6719.66
6719.54
6719.2
6718.64
6717.87
6716.9
6715.73
6714.35
6712.77
6710.97
6708.93
6706.56
6703.81
6700.84
6696.96
6694.07
6687.03
6677.51
6670.91
6667.45
6662.78
6658.97
6655.41
6651.73
6647.39
6641.22
6634.96
6628.42
6621.31
6613.41
6607.31
6601.77
6596.21
6590.37
6584.21
6577.83
6571.53
6565.92
6561.01
6556.67
6552.7
6548.96
6545.29
6541.56
6537.66
6533.53
6529.26
6524.92
6520.51
6516
6511.39
6506.64
6501.68
6496.37
6490.42
6483.27
6473.41
6463.83
6454.06
6446.7
6439.82
6433.61
6427.69
6421.56
6414.71
6407.61
6400.38
6393.04
6385.57
6377.92
6370.1
6362.27
6355.19
6348.57
6342.41
6336.54
6330.84
6325.19
6319.57
6313.94
6308.32
6302.72
6297.16
6291.67
6286.25
6280.89
6275.58
6270.32
6265.11
6259.93
6254.8
6249.73
6244.7
6239.73
6234.83
6230.01
6225.31
6220.8
6216.52
6212.53
6208.87
6205.58
6202.7
6200.26
6198.29
6196.71
6195.12
6194.27
6163.28
6102.57
6042.14
5982.23
5922.86
5863.77
5804.5
5744.47
5683.07
5619.76
5554.14
5486.09
5415.88
5344.4
5304.61
5300.37
5300.53
5301.59
5305.65
5332.64
5355.98
5364.1
5365.51
5366.77
5367.74
5368.44
5368.9
5369.18
5369.34
5369.42
5369.45
6708.45
6708.71
6709.22
6709.98
6710.98
6712.17
6713.46
6714.73
6715.86
6716.79
6717.47
6717.88
6718.04
6717.96
6717.63
6717.09
6716.34
6715.39
6714.24
6712.89
6711.34
6709.57
6707.47
6704.72
6702.74
6699.24
6694.89
6684.75
6674.89
6668.69
6664.13
6660.32
6657.63
6655.04
6652.52
6649.83
6644.49
6635.66
6625.06
6615.86
6608.95
6604.17
6599.54
6594.37
6588.53
6582.01
6574.85
6567.45
6561.59
6556.89
6552.92
6549.37
6546.03
6542.72
6539.29
6535.66
6531.89
6528.04
6524.09
6520.03
6515.88
6511.67
6507.41
6503.07
6498.55
6493.59
6488.07
6476.52
6460.79
6449.82
6444.64
6437.74
6432.35
6427.48
6422.28
6414.95
6407.61
6400.28
6392.88
6385.28
6377.41
6369.04
6359.98
6353.08
6346.49
6340.64
6335.14
6329.73
6324.32
6318.85
6313.33
6307.77
6302.21
6296.7
6291.28
6285.96
6280.71
6275.51
6270.36
6265.24
6260.17
6255.14
6250.17
6245.25
6240.37
6235.53
6230.74
6226.07
6221.58
6217.35
6213.45
6209.91
6206.76
6204.02
6201.76
6200.03
6198.93
6197.14
6195.29
6160.13
6093.41
6028.78
5965.81
5904
5842.88
5781.95
5720.69
5658.59
5595.22
5530.26
5463.78
5396.82
5333.98
5303.18
5300.06
5300.12
5300.78
5303.43
5325.47
5344.64
5350.48
5353.05
5354.46
5355.3
5355.78
5356.02
5356.11
5356.11
5356.09
5356.07
6702.6
6702.93
6703.59
6704.6
6705.98
6707.67
6709.55
6711.41
6713.08
6714.45
6715.5
6716.24
6716.67
6716.83
6716.73
6716.4
6715.87
6715.13
6714.2
6713.08
6711.75
6710.36
6708.84
6706.49
6703.61
6695.19
6686.43
6676.94
6669.91
6664.58
6660.78
6658.08
6656.12
6654.55
6653.47
6651.54
6644.25
6632.24
6620.38
6610.36
6604.81
6600.81
6597.76
6593.11
6587.28
6580.29
6571.97
6561.64
6555.94
6551.88
6548.55
6545.59
6542.76
6539.88
6536.84
6533.67
6530.4
6526.97
6523.38
6519.65
6515.83
6512.01
6508.26
6504.65
6501.16
6497.33
6492.56
6476.31
6456.63
6445.21
6439.45
6434.13
6430.59
6427.59
6425.15
6419.71
6408.72
6398.74
6393.84
6385.11
6372.83
6362.56
6355.51
6350.66
6343.68
6338.53
6333.63
6328.64
6323.49
6318.18
6312.75
6307.22
6301.65
6296.13
6290.79
6285.6
6280.48
6275.4
6270.35
6265.34
6260.36
6255.43
6250.56
6245.74
6240.96
6236.17
6231.35
6226.63
6222.1
6217.85
6214.01
6210.57
6207.51
6204.87
6202.72
6201.13
6200.22
6198.92
6195.77
6154.79
6082.14
6013.79
5948.22
5884.45
5821.8
5759.73
5697.74
5635.38
5572.25
5507.92
5441.95
5373.64
5318.81
5300.69
5299.66
5299.7
5299.72
5301.6
5321.18
5337.97
5340.11
5341.75
5342.73
5343.22
5343.36
5343.29
5343.12
5342.92
5342.75
5342.66
6696.28
6696.66
6697.45
6698.72
6700.52
6702.84
6705.53
6708.16
6710.45
6712.31
6713.74
6714.77
6715.46
6715.84
6715.94
6715.81
6715.47
6714.93
6714.21
6713.29
6712.1
6711.21
6709.48
6701.07
6691.95
6680.65
6672.07
6664.95
6659.77
6656.53
6655.52
6656.07
6654.43
6653.56
6653.42
6651.69
6641.71
6625.67
6611.86
6600.59
6592.44
6591.38
6592.33
6590.34
6583.36
6572.28
6560.16
6550.93
6548.44
6545.93
6543.61
6541.41
6539.19
6536.85
6534.42
6531.87
6529.11
6526.1
6522.81
6519.34
6515.79
6512.28
6508.96
6506.11
6504.11
6501.11
6490.36
6468.42
6449.22
6436.23
6428.68
6426.53
6428.27
6427.15
6425.84
6419.77
6406.55
6392.23
6384.32
6377.39
6368.1
6359.66
6350.97
6344.05
6339.02
6336.16
6332.22
6327.71
6322.81
6317.64
6312.26
6306.72
6301.05
6295.38
6290.17
6285.16
6280.21
6275.26
6270.32
6265.39
6260.5
6255.66
6250.9
6246.21
6241.56
6236.84
6231.87
6227.01
6222.33
6217.94
6214.17
6210.84
6207.85
6205.23
6203.11
6201.57
6200.71
6199.56
6194.93
6143.83
6066.58
5996
5928.83
5863.78
5800.15
5737.42
5675.15
5612.96
5550.47
5487.21
5422.47
5354.76
5309.08
5299.7
5299.2
5299.31
5299.46
5300.52
5314.89
5329.29
5330.25
5331.1
5331.5
5331.48
5331.16
5330.67
5330.15
5329.68
5329.34
5329.16
6689.42
6689.83
6690.7
6692.16
6694.38
6697.52
6701.42
6705.12
6708.14
6710.48
6712.24
6713.54
6714.43
6714.99
6715.27
6715.3
6715.12
6714.77
6714.3
6713.74
6712.78
6709.92
6699.03
6683.7
6672.66
6663.38
6656.26
6651.03
6647.7
6646.26
6647.04
6650.7
6652.4
6652.67
6651.04
6648.92
6636.18
6616.87
6600.81
6586.19
6577.37
6581.77
6584.01
6579.63
6565.14
6549.4
6544.42
6541.82
6540.84
6539.61
6538.31
6536.93
6535.44
6533.88
6532.2
6530.31
6528.09
6525.49
6522.43
6519.12
6515.72
6512.34
6509.2
6506.73
6505.19
6503.14
6487.01
6458.74
6435
6416.79
6404.12
6401.12
6410.64
6419.93
6420.23
6409.11
6391.61
6376.74
6370.57
6366.36
6359.86
6354.23
6346.72
6340.24
6337.03
6334.85
6331.39
6327.16
6322.41
6317.31
6311.94
6306.34
6300.44
6294.17
6289.34
6284.67
6279.93
6275.12
6270.27
6265.41
6260.58
6255.83
6251.16
6246.62
6242.22
6237.77
6232.29
6227.2
6222.29
6217.39
6213.91
6210.78
6207.83
6205.1
6202.93
6201.31
6200.42
6199.4
6177.24
6114.53
6044.35
5974.82
5907.3
5841.69
5777.6
5714.64
5652.48
5590.84
5529.46
5468
5405.94
5342.33
5303.86
5298.42
5298.61
5298.89
5299.26
5301.13
5309.02
5319.66
5320.51
5320.89
5320.7
5320.05
5319.11
5318.08
5317.12
5316.33
5315.77
5315.49
6682.01
6682.38
6683.21
6684.7
6687.19
6691.27
6697.36
6702.62
6706.36
6709.09
6711.1
6712.57
6713.61
6714.3
6714.69
6714.85
6714.83
6714.68
6714.47
6713.19
6703.69
6691.96
6675.86
6662.02
6651.63
6643.94
6638.55
6635.2
6633.73
6633.77
6635.67
6640.87
6647.41
6643.57
6643.8
6643.76
6626.17
6604.8
6588.32
6574.55
6568.87
6575.02
6577.62
6564.8
6544.67
6531.1
6532.55
6533.42
6533.38
6533.19
6532.84
6532.34
6531.76
6531.08
6530.23
6529.07
6527.46
6525.36
6522.29
6519
6515.61
6512.18
6508.75
6506.42
6504.8
6501.99
6480.41
6444.52
6415.25
6391.81
6372.7
6363.81
6369.13
6374.2
6390.03
6388.23
6375.78
6368.22
6364.86
6360.53
6355.63
6352.42
6347.18
6341.51
6338
6334.13
6330.25
6326.37
6321.27
6315.96
6310.99
6305.17
6297.67
6291.51
6288.36
6284.25
6279.73
6275.02
6270.22
6265.4
6260.59
6255.9
6251.31
6246.91
6242.91
6239.74
6232.47
6227.54
6220.78
6215.41
6213.28
6210.54
6207.57
6204.4
6202.19
6200.34
6199.32
6197.83
6163.12
6092.68
6021.46
5951.63
5883.88
5818.08
5753.91
5691.07
5629.3
5568.47
5508.51
5449.4
5390.98
5332.64
5300.06
5297.14
5297.75
5298.36
5299.27
5301.01
5304.04
5309.55
5311.23
5311.26
5310.36
5308.89
5307.16
5305.44
5303.92
5302.74
5301.93
5301.52
6674.08
6674.34
6674.93
6676.07
6678.26
6682.82
6693.96
6701.49
6705.47
6708.26
6710.35
6711.91
6712.98
6713.75
6714.22
6714.47
6714.64
6714.65
6706.23
6695.77
6679.71
6665.36
6650.42
6636.91
6627.88
6622.19
6618.82
6617.48
6618.26
6619.41
6621.02
6623.57
6627.57
6622.68
6624.03
6622.37
6604.72
6587.86
6573.12
6560.33
6554.82
6557.51
6557.2
6545.94
6530.84
6521.87
6521.55
6525.09
6525.97
6526.77
6527.39
6527.86
6528.24
6528.5
6528.58
6528.3
6527.31
6526.2
6523.16
6518.72
6514.43
6510.34
6507.21
6505.4
6502.92
6496.33
6467.49
6423.7
6389.66
6362.49
6339.62
6328.87
6328.66
6321.31
6349.9
6376.78
6369.03
6365.26
6364.97
6360.41
6355.13
6351.15
6347.85
6344.38
6330.11
6318.03
6311.13
6305.57
6300.13
6294.93
6289.89
6284.42
6278.42
6273.32
6269.65
6265.98
6262.34