/*--------------------------------*- C++ -*----------------------------------*\
| =========                 |                                                 |
| \\      /  F ield         | OpenFOAM: The Open Source CFD Toolbox           |
|  \\    /   O peration     | Version:  2.1.0                                 |
|   \\  /    A nd           | Web:      www.OpenFOAM.org                      |
|    \\/     M anipulation  |                                                 |
\*---------------------------------------------------------------------------*/
FoamFile
{
    version     2.0;
    format      ascii;
    class       volScalarField;
    location    "12045";
    object      so;
}
// * * * * * * * * * * * * * * * * * * * * * * * * * * * * * * * * * * * * * //

dimensions      [0 0 0 0 0 0 0];

internalField   nonuniform List<scalar> 
15000
(
0.200001
0.20041
0.20522
0.218557
0.237334
0.257361
0.276706
0.294786
0.311515
0.326961
0.34123
0.354437
0.366684
0.378064
0.388662
0.39856
0.407833
0.416549
0.424759
0.432506
0.439831
0.446768
0.453348
0.4596
0.465553
0.471235
0.476669
0.481877
0.486881
0.491701
0.496355
0.50086
0.505231
0.509482
0.513626
0.517675
0.521642
0.525537
0.52937
0.533151
0.536891
0.540598
0.544282
0.547952
0.551615
0.555281
0.55896
0.56266
0.566391
0.570164
0.573992
0.577889
0.581872
0.585963
0.590186
0.594575
0.599174
0.60404
0.60925
0.614916
0.6212
0.628349
0.636751
0.647033
0.660245
0.678107
0.702934
0.73524
0.767496
0.787955
0.79633
0.798977
0.799726
0.799928
0.799982
0.799995
0.799999
0.8
0.8
0.8
0.8
0.8
0.8
0.8
0.8
0.8
0.8
0.8
0.8
0.8
0.8
0.8
0.8
0.8
0.8
0.8
0.8
0.8
0.8
0.8
0.8
0.8
0.8
0.8
0.8
0.8
0.8
0.8
0.8
0.8
0.8
0.8
0.8
0.8
0.8
0.8
0.8
0.8
0.8
0.8
0.8
0.8
0.8
0.8
0.8
0.8
0.8
0.8
0.8
0.8
0.8
0.8
0.8
0.8
0.8
0.8
0.8
0.8
0.8
0.8
0.8
0.8
0.8
0.8
0.8
0.8
0.8
0.8
0.8
0.8
0.200407
0.203147
0.212384
0.228026
0.24658
0.265497
0.283681
0.30077
0.316698
0.331503
0.345263
0.358061
0.369977
0.381089
0.391471
0.401195
0.410327
0.418926
0.427039
0.434706
0.441963
0.448839
0.455365
0.461569
0.46748
0.473122
0.478519
0.483693
0.488665
0.493456
0.498082
0.50256
0.506905
0.511131
0.515251
0.519278
0.523222
0.527096
0.530909
0.534671
0.538394
0.542087
0.545757
0.549416
0.55307
0.556731
0.560408
0.56411
0.567849
0.571636
0.575486
0.579413
0.583437
0.587581
0.591873
0.596352
0.601064
0.606074
0.61147
0.61738
0.623991
0.631589
0.640623
0.651826
0.666412
0.686285
0.713534
0.7467
0.775671
0.791554
0.797491
0.799305
0.799814
0.799951
0.799987
0.799997
0.799999
0.8
0.8
0.8
0.8
0.8
0.8
0.8
0.8
0.8
0.8
0.8
0.8
0.8
0.8
0.8
0.8
0.8
0.8
0.8
0.8
0.8
0.8
0.8
0.8
0.8
0.8
0.8
0.8
0.8
0.8
0.8
0.8
0.8
0.8
0.8
0.8
0.8
0.8
0.8
0.8
0.8
0.8
0.8
0.8
0.8
0.8
0.8
0.8
0.8
0.8
0.8
0.8
0.8
0.8
0.8
0.8
0.8
0.8
0.8
0.8
0.8
0.8
0.8
0.8
0.8
0.8
0.8
0.8
0.8
0.8
0.8
0.8
0.8
0.205152
0.212306
0.224865
0.240927
0.25829
0.275646
0.292388
0.308271
0.32322
0.337242
0.350372
0.362661
0.374164
0.38494
0.395049
0.404549
0.413499
0.421948
0.429934
0.437493
0.444654
0.451445
0.457894
0.464029
0.469876
0.475458
0.480799
0.485919
0.490842
0.495584
0.500163
0.504596
0.508898
0.513082
0.517162
0.52115
0.525057
0.528894
0.532672
0.536402
0.540093
0.543755
0.547399
0.551033
0.554667
0.558311
0.561976
0.565673
0.569412
0.573207
0.577073
0.581027
0.585089
0.589285
0.593646
0.598214
0.603042
0.608202
0.613794
0.619965
0.626933
0.635029
0.644784
0.657066
0.673297
0.695555
0.725293
0.758216
0.782756
0.794361
0.798362
0.799549
0.799879
0.799968
0.799992
0.799998
0.799999
0.8
0.8
0.8
0.8
0.8
0.8
0.8
0.8
0.8
0.8
0.8
0.8
0.8
0.8
0.8
0.8
0.8
0.8
0.8
0.8
0.8
0.8
0.8
0.8
0.8
0.8
0.8
0.8
0.8
0.8
0.8
0.8
0.8
0.8
0.8
0.8
0.8
0.8
0.8
0.8
0.8
0.8
0.8
0.8
0.8
0.8
0.8
0.8
0.8
0.8
0.8
0.8
0.8
0.8
0.8
0.8
0.8
0.8
0.8
0.8
0.8
0.8
0.8
0.8
0.8
0.8
0.8
0.8
0.8
0.8
0.8
0.8
0.8
0.218268
0.227748
0.240744
0.255683
0.271342
0.286985
0.302215
0.316829
0.330737
0.34391
0.356348
0.368071
0.379111
0.389508
0.399304
0.40855
0.417292
0.425566
0.433404
0.440832
0.447876
0.454563
0.460917
0.466964
0.472728
0.478233
0.4835
0.48855
0.493404
0.498081
0.502597
0.506969
0.511211
0.515337
0.519361
0.523295
0.527149
0.530934
0.534663
0.538345
0.54199
0.545609
0.549213
0.552811
0.556413
0.56003
0.563674
0.567356
0.571089
0.574886
0.578764
0.582741
0.58684
0.591088
0.59552
0.600182
0.605134
0.610457
0.616266
0.622732
0.630109
0.638791
0.649415
0.663024
0.681291
0.70634
0.73821
0.769155
0.78846
0.796411
0.798976
0.799719
0.799925
0.79998
0.799995
0.799999
0.8
0.8
0.8
0.8
0.8
0.8
0.8
0.8
0.8
0.8
0.8
0.8
0.8
0.8
0.8
0.8
0.8
0.8
0.8
0.8
0.8
0.8
0.8
0.8
0.8
0.8
0.8
0.8
0.8
0.8
0.8
0.8
0.8
0.8
0.8
0.8
0.8
0.8
0.8
0.8
0.8
0.8
0.8
0.8
0.8
0.8
0.8
0.8
0.8
0.8
0.8
0.8
0.8
0.8
0.8
0.8
0.8
0.8
0.8
0.8
0.8
0.8
0.8
0.8
0.8
0.8
0.8
0.8
0.8
0.8
0.8
0.8
0.8
0.8
0.23669
0.245992
0.257828
0.271076
0.284945
0.298925
0.3127
0.326081
0.338959
0.351277
0.363007
0.374143
0.384699
0.394694
0.404162
0.413139
0.421656
0.429739
0.437411
0.444693
0.451605
0.458172
0.464417
0.470361
0.476029
0.481442
0.48662
0.491584
0.496355
0.50095
0.505388
0.509683
0.51385
0.517905
0.521858
0.525722
0.529508
0.533228
0.536893
0.540512
0.544098
0.547661
0.551211
0.55476
0.558319
0.561899
0.565512
0.569172
0.572891
0.576684
0.580569
0.584567
0.588702
0.593005
0.597514
0.60228
0.607369
0.612877
0.618937
0.62575
0.63362
0.643023
0.654735
0.670031
0.690844
0.718978
0.751856
0.778771
0.792722
0.797824
0.799388
0.799833
0.799956
0.799988
0.799997
0.799999
0.8
0.8
0.8
0.8
0.8
0.8
0.8
0.8
0.8
0.8
0.8
0.8
0.8
0.8
0.8
0.8
0.8
0.8
0.8
0.8
0.8
0.8
0.8
0.8
0.8
0.8
0.8
0.8
0.8
0.8
0.8
0.8
0.8
0.8
0.8
0.8
0.8
0.8
0.8
0.8
0.8
0.8
0.8
0.8
0.8
0.8
0.8
0.8
0.8
0.8
0.8
0.8
0.8
0.8
0.8
0.8
0.8
0.8
0.8
0.8
0.8
0.8
0.8
0.8
0.8
0.8
0.8
0.8
0.8
0.8
0.8
0.8
0.8
0.8
0.256276
0.264512
0.274821
0.286379
0.298598
0.311067
0.323512
0.335748
0.347653
0.359149
0.370188
0.380747
0.39082
0.400416
0.409554
0.418258
0.426545
0.434429
0.441926
0.449052
0.455824
0.462262
0.468387
0.474219
0.479779
0.485087
0.490162
0.495027
0.4997
0.504201
0.508545
0.51275
0.51683
0.520798
0.524666
0.528447
0.532152
0.535792
0.539378
0.542921
0.546433
0.549925
0.553409
0.556897
0.5604
0.563932
0.567504
0.571131
0.574829
0.578613
0.582503
0.58652
0.590693
0.595055
0.599648
0.604531
0.60978
0.615506
0.621868
0.629107
0.637592
0.647913
0.661037
0.678525
0.702477
0.733538
0.76528
0.786469
0.795679
0.798745
0.799651
0.799906
0.799975
0.799993
0.799998
0.8
0.8
0.8
0.8
0.8
0.8
0.8
0.8
0.8
0.8
0.8
0.8
0.8
0.8
0.8
0.8
0.8
0.8
0.8
0.8
0.8
0.8
0.8
0.8
0.8
0.8
0.8
0.8
0.8
0.8
0.8
0.8
0.8
0.8
0.8
0.8
0.8
0.8
0.8
0.8
0.8
0.8
0.8
0.8
0.8
0.8
0.8
0.8
0.8
0.8
0.8
0.8
0.8
0.8
0.8
0.8
0.8
0.8
0.8
0.8
0.8
0.8
0.8
0.8
0.8
0.8
0.8
0.8
0.8
0.8
0.8
0.8
0.8
0.8
0.8
0.275113
0.282224
0.291127
0.301207
0.311994
0.323147
0.334417
0.345625
0.356641
0.367374
0.377764
0.387775
0.397388
0.406602
0.415424
0.423862
0.43192
0.439605
0.446925
0.453893
0.460522
0.466828
0.472828
0.478541
0.483984
0.489177
0.49414
0.498894
0.503458
0.50785
0.512089
0.51619
0.520169
0.524037
0.527808
0.531493
0.535103
0.53865
0.542143
0.545595
0.549019
0.552426
0.555829
0.559241
0.562675
0.566145
0.569666
0.573252
0.57692
0.580688
0.584578
0.588615
0.592829
0.597256
0.601947
0.606968
0.612408
0.618399
0.625137
0.632915
0.642196
0.653727
0.66873
0.689084
0.716675
0.749469
0.777186
0.792033
0.797587
0.799314
0.799811
0.799949
0.799987
0.799997
0.799999
0.8
0.8
0.8
0.8
0.8
0.8
0.8
0.8
0.8
0.8
0.8
0.8
0.8
0.8
0.8
0.8
0.8
0.8
0.8
0.8
0.8
0.8
0.8
0.8
0.8
0.8
0.8
0.8
0.8
0.8
0.8
0.8
0.8
0.8
0.8
0.8
0.8
0.8
0.8
0.8
0.8
0.8
0.8
0.8
0.8
0.8
0.8
0.8
0.8
0.8
0.8
0.8
0.8
0.8
0.8
0.8
0.8
0.8
0.8
0.8
0.8
0.8
0.8
0.8
0.8
0.8
0.8
0.8
0.8
0.8
0.8
0.8
0.8
0.8
0.8
0.292621
0.298776
0.306516
0.315369
0.324959
0.334995
0.345252
0.355559
0.365784
0.375832
0.385633
0.395142
0.404334
0.413197
0.421725
0.429911
0.437751
0.445244
0.452396
0.459211
0.4657
0.471874
0.47775
0.48334
0.488663
0.493736
0.498579
0.503212
0.507655
0.511927
0.516048
0.520034
0.523899
0.527657
0.531318
0.534895
0.538397
0.541835
0.545221
0.548568
0.551887
0.555194
0.5585
0.56182
0.56517
0.568565
0.57202
0.575553
0.579182
0.582929
0.586816
0.590872
0.59513
0.599635
0.604441
0.609627
0.615303
0.621629
0.628848
0.637333
0.647675
0.660844
0.678396
0.702422
0.733544
0.765302
0.786466
0.795664
0.798734
0.799646
0.799903
0.799974
0.799993
0.799998
0.8
0.8
0.8
0.8
0.8
0.8
0.8
0.8
0.8
0.8
0.8
0.8
0.8
0.8
0.8
0.8
0.8
0.8
0.8
0.8
0.8
0.8
0.8
0.8
0.8
0.8
0.8
0.8
0.8
0.8
0.8
0.8
0.8
0.8
0.8
0.8
0.8
0.8
0.8
0.8
0.8
0.8
0.8
0.8
0.8
0.8
0.8
0.8
0.8
0.8
0.8
0.8
0.8
0.8
0.8
0.8
0.8
0.8
0.8
0.8
0.8
0.8
0.8
0.8
0.8
0.8
0.8
0.8
0.8
0.8
0.8
0.8
0.8
0.8
0.8
0.8
0.308716
0.31411
0.320921
0.328784
0.337395
0.346503
0.355907
0.365444
0.374986
0.384434
0.393718
0.402786
0.411608
0.42016
0.428423
0.43638
0.444021
0.451339
0.458334
0.465008
0.471366
0.477418
0.483175
0.488648
0.493851
0.498802
0.50352
0.508023
0.512335
0.516476
0.520467
0.524326
0.528067
0.531702
0.535243
0.5387
0.542081
0.545398
0.548662
0.551886
0.555084
0.558271
0.561462
0.564673
0.567922
0.571224
0.574598
0.578064
0.581643
0.585359
0.589239
0.593314
0.597625
0.60222
0.607166
0.612558
0.618532
0.625292
0.633148
0.642586
0.654389
0.669836
0.690851
0.71919
0.752148
0.778944
0.792759
0.797816
0.799378
0.799828
0.799953
0.799988
0.799997
0.799999
0.8
0.8
0.8
0.8
0.8
0.8
0.8
0.8
0.8
0.8
0.8
0.8
0.8
0.8
0.8
0.8
0.8
0.8
0.8
0.8
0.8
0.8
0.8
0.8
0.8
0.8
0.8
0.8
0.8
0.8
0.8
0.8
0.8
0.8
0.8
0.8
0.8
0.8
0.8
0.8
0.8
0.8
0.8
0.8
0.8
0.8
0.8
0.8
0.8
0.8
0.8
0.8
0.8
0.8
0.8
0.8
0.8
0.8
0.8
0.8
0.8
0.8
0.8
0.8
0.8
0.8
0.8
0.8
0.8
0.8
0.8
0.8
0.8
0.8
0.8
0.8
0.323468
0.328266
0.334349
0.34143
0.349255
0.35761
0.366312
0.375209
0.384177
0.393122
0.40197
0.410668
0.419178
0.427464
0.435498
0.443256
0.450722
0.457887
0.464747
0.4713
0.477547
0.483494
0.489147
0.494514
0.499606
0.504437
0.509026
0.513394
0.517565
0.521563
0.525412
0.529132
0.532737
0.536239
0.53965
0.542976
0.546225
0.549406
0.552532
0.555616
0.558672
0.561719
0.564773
0.567853
0.570977
0.574165
0.577439
0.580821
0.584335
0.588011
0.591878
0.595973
0.600344
0.605049
0.610169
0.615824
0.622188
0.629527
0.638252
0.649018
0.662893
0.681558
0.70709
0.739278
0.77
0.788811
0.796491
0.798982
0.799715
0.799922
0.799979
0.799994
0.799999
0.8
0.8
0.8
0.8
0.8
0.8
0.8
0.8
0.8
0.8
0.8
0.8
0.8
0.8
0.8
0.8
0.8
0.8
0.8
0.8
0.8
0.8
0.8
0.8
0.8
0.8
0.8
0.8
0.8
0.8
0.8
0.8
0.8
0.8
0.8
0.8
0.8
0.8
0.8
0.8
0.8
0.8
0.8
0.8
0.8
0.8
0.8
0.8
0.8
0.8
0.8
0.8
0.8
0.8
0.8
0.8
0.8
0.8
0.8
0.8
0.8
0.8
0.8
0.8
0.8
0.8
0.8
0.8
0.8
0.8
0.8
0.8
0.8
0.8
0.8
0.8
0.8
0.336981
0.341319
0.346841
0.353313
0.360525
0.368285
0.376428
0.384812
0.393321
0.401862
0.410364
0.418769
0.427027
0.435096
0.442941
0.450535
0.457861
0.464906
0.471661
0.478123
0.48429
0.49016
0.495736
0.501019
0.506016
0.510738
0.515201
0.519428
0.523447
0.527289
0.530981
0.534547
0.538005
0.541366
0.544638
0.547824
0.550929
0.553961
0.55693
0.559852
0.562743
0.565623
0.568513
0.571434
0.574407
0.577455
0.580603
0.583877
0.587307
0.590927
0.594772
0.598889
0.603331
0.608172
0.613515
0.619515
0.626405
0.634541
0.644492
0.657173
0.674056
0.697208
0.727762
0.760572
0.784018
0.79477
0.798455
0.799563
0.799879
0.799967
0.799991
0.799998
0.799999
0.8
0.8
0.8
0.8
0.8
0.8
0.8
0.8
0.8
0.8
0.8
0.8
0.8
0.8
0.8
0.8
0.8
0.8
0.8
0.8
0.8
0.8
0.8
0.8
0.8
0.8
0.8
0.8
0.8
0.8
0.8
0.8
0.8
0.8
0.8
0.8
0.8
0.8
0.8
0.8
0.8
0.8
0.8
0.8
0.8
0.8
0.8
0.8
0.8
0.8
0.8
0.8
0.8
0.8
0.8
0.8
0.8
0.8
0.8
0.8
0.8
0.8
0.8
0.8
0.8
0.8
0.8
0.8
0.8
0.8
0.8
0.8
0.8
0.8
0.8
0.8
0.8
0.349359
0.353346
0.358445
0.364461
0.37121
0.378521
0.386241
0.394239
0.402405
0.41065
0.418898
0.427084
0.435153
0.443057
0.45076
0.458234
0.465461
0.472428
0.479122
0.485538
0.491668
0.497507
0.503049
0.508288
0.513223
0.517859
0.522207
0.52629
0.530144
0.533808
0.537323
0.540719
0.544018
0.547229
0.550356
0.553395
0.556346
0.559212
0.562005
0.564738
0.567433
0.570114
0.572805
0.575531
0.578316
0.581187
0.584173
0.587307
0.590625
0.594166
0.597979
0.602115
0.606643
0.611658
0.617295
0.623762
0.631381
0.640656
0.6524
0.667926
0.6892
0.718009
0.751577
0.778822
0.792772
0.797831
0.799382
0.799828
0.799953
0.799987
0.799997
0.799999
0.8
0.8
0.8
0.8
0.8
0.8
0.8
0.8
0.8
0.8
0.8
0.8
0.8
0.8
0.8
0.8
0.8
0.8
0.8
0.8
0.8
0.8
0.8
0.8
0.8
0.8
0.8
0.8
0.8
0.8
0.8
0.8
0.8
0.8
0.8
0.8
0.8
0.8
0.8
0.8
0.8
0.8
0.8
0.8
0.8
0.8
0.8
0.8
0.8
0.8
0.8
0.8
0.8
0.8
0.8
0.8
0.8
0.8
0.8
0.8
0.8
0.8
0.8
0.8
0.8
0.8
0.8
0.8
0.8
0.8
0.8
0.8
0.8
0.8
0.8
0.8
0.8
0.8
0.360696
0.364422
0.369217
0.374909
0.381332
0.38833
0.395761
0.403501
0.411445
0.4195
0.427583
0.435626
0.44357
0.451367
0.458981
0.466389
0.473571
0.480513
0.487204
0.493636
0.499798
0.505676
0.511256
0.516522
0.52146
0.526056
0.530314
0.534254
0.537922
0.541378
0.544683
0.547883
0.551006
0.55406
0.557039
0.559929
0.562718
0.565403
0.567992
0.570501
0.572958
0.575392
0.577835
0.580316
0.582863
0.585506
0.58828
0.591225
0.594387
0.597819
0.601576
0.605728
0.610362
0.615604
0.621641
0.628765
0.637437
0.6484
0.662859
0.682678
0.709961
0.743592
0.773733
0.790712
0.797188
0.799201
0.799778
0.799939
0.799984
0.799996
0.799999
0.8
0.8
0.8
0.8
0.8
0.8
0.8
0.8
0.8
0.8
0.8
0.8
0.8
0.8
0.8
0.8
0.8
0.8
0.8
0.8
0.8
0.8
0.8
0.8
0.8
0.8
0.8
0.8
0.8
0.8
0.8
0.8
0.8
0.8
0.8
0.8
0.8
0.8
0.8
0.8
0.8
0.8
0.8
0.8
0.8
0.8
0.8
0.8
0.8
0.8
0.8
0.8
0.8
0.8
0.8
0.8
0.8
0.8
0.8
0.8
0.8
0.8
0.8
0.8
0.8
0.8
0.8
0.8
0.8
0.8
0.8
0.8
0.8
0.8
0.8
0.8
0.8
0.8
0.8
0.371074
0.374618
0.379211
0.384698
0.390925
0.397744
0.405022
0.412637
0.420479
0.428446
0.436453
0.444429
0.452317
0.46007
0.46766
0.475063
0.482265
0.489254
0.496023
0.502561
0.508855
0.514886
0.52063
0.526249
0.531642
0.536572
0.540765
0.544492
0.547854
0.550954
0.553903
0.55678
0.559628
0.562458
0.565245
0.567954
0.570548
0.57301
0.575341
0.577559
0.579701
0.581809
0.583924
0.586082
0.588312
0.590649
0.593131
0.595811
0.59875
0.602015
0.605682
0.609841
0.61461
0.620161
0.626764
0.634846
0.645103
0.658668
0.677336
0.703378
0.736815
0.769136
0.788809
0.796618
0.799052
0.799741
0.79993
0.799981
0.799995
0.799999
0.8
0.8
0.8
0.8
0.8
0.8
0.8
0.8
0.8
0.8
0.8
0.8
0.8
0.8
0.8
0.8
0.8
0.8
0.8
0.8
0.8
0.8
0.8
0.8
0.8
0.8
0.8
0.8
0.8
0.8
0.8
0.8
0.8
0.8
0.8
0.8
0.8
0.8
0.8
0.8
0.8
0.8
0.8
0.8
0.8
0.8
0.8
0.8
0.8
0.8
0.8
0.8
0.8
0.8
0.8
0.8
0.8
0.8
0.8
0.8
0.8
0.8
0.8
0.8
0.8
0.8
0.8
0.8
0.8
0.8
0.8
0.8
0.8
0.8
0.8
0.8
0.8
0.8
0.8
0.8
0.380563
0.383993
0.38848
0.393875
0.400034
0.406814
0.414081
0.421705
0.429562
0.437546
0.445568
0.453559
0.461464
0.469246
0.476882
0.484356
0.49166
0.498793
0.505752
0.512531
0.51912
0.525505
0.532261
0.539061
0.545751
0.552044
0.557437
0.560954
0.563788
0.566153
0.568315
0.570457
0.572684
0.575014
0.577392
0.579721
0.581908
0.583906
0.585709
0.587347
0.588878
0.590383
0.591926
0.593546
0.595269
0.597122
0.599148
0.601412
0.603994
0.606988
0.610495
0.614638
0.61958
0.62557
0.63301
0.642559
0.655307
0.673005
0.698038
0.731224
0.765224
0.787211
0.796187
0.798964
0.799729
0.79993
0.799982
0.799995
0.799999
0.8
0.8
0.8
0.8
0.8
0.8
0.8
0.8
0.8
0.8
0.8
0.8
0.8
0.8
0.8
0.8
0.8
0.8
0.8
0.8
0.8
0.8
0.8
0.8
0.8
0.8
0.8
0.8
0.8
0.8
0.8
0.8
0.8
0.8
0.8
0.8
0.8
0.8
0.8
0.8
0.8
0.8
0.8
0.8
0.8
0.8
0.8
0.8
0.8
0.8
0.8
0.8
0.8
0.8
0.8
0.8
0.8
0.8
0.8
0.8
0.8
0.8
0.8
0.8
0.8
0.8
0.8
0.8
0.8
0.8
0.8
0.8
0.8
0.8
0.8
0.8
0.8
0.8
0.8
0.8
0.8
0.389225
0.392605
0.397074
0.402493
0.40872
0.415611
0.423016
0.430786
0.438783
0.446895
0.45503
0.463121
0.471124
0.479014
0.486778
0.494416
0.501933
0.509344
0.516661
0.523894
0.53105
0.5391
0.54765
0.556804
0.566567
0.576192
0.584978
0.589106
0.591044
0.591877
0.592387
0.593034
0.594085
0.595598
0.597431
0.599298
0.600902
0.602111
0.602901
0.603324
0.603521
0.603704
0.60402
0.604532
0.605247
0.606169
0.607333
0.608816
0.610732
0.613214
0.6164
0.620456
0.625613
0.632247
0.640986
0.65289
0.669693
0.693864
0.726788
0.762074
0.785972
0.795908
0.798936
0.799737
0.799935
0.799984
0.799996
0.799999
0.8
0.8
0.8
0.8
0.8
0.8
0.8
0.8
0.8
0.8
0.8
0.8
0.8
0.8
0.8
0.8
0.8
0.8
0.8
0.8
0.8
0.8
0.8
0.8
0.8
0.8
0.8
0.8
0.8
0.8
0.8
0.8
0.8
0.8
0.8
0.8
0.8
0.8
0.8
0.8
0.8
0.8
0.8
0.8
0.8
0.8
0.8
0.8
0.8
0.8
0.8
0.8
0.8
0.8
0.8
0.8
0.8
0.8
0.8
0.8
0.8
0.8
0.8
0.8
0.8
0.8
0.8
0.8
0.8
0.8
0.8
0.8
0.8
0.8
0.8
0.8
0.8
0.8
0.8
0.8
0.8
0.8
0.397151
0.40056
0.405115
0.410672
0.417082
0.42418
0.431796
0.439896
0.448283
0.456644
0.464993
0.473276
0.481465
0.489553
0.497547
0.505471
0.513356
0.521244
0.529184
0.537233
0.54644
0.557071
0.569442
0.583399
0.599341
0.614726
0.631534
0.637436
0.637926
0.635188
0.632048
0.629578
0.628456
0.62889
0.630556
0.632751
0.633982
0.63424
0.633431
0.631591
0.62902
0.626403
0.624175
0.622447
0.621158
0.620232
0.619668
0.61957
0.620133
0.621564
0.624061
0.627848
0.633263
0.640892
0.651766
0.667613
0.690976
0.723613
0.759799
0.785126
0.795765
0.798946
0.799755
0.799944
0.799987
0.799997
0.799999
0.8
0.8
0.8
0.8
0.8
0.8
0.8
0.8
0.8
0.8
0.8
0.8
0.8
0.8
0.8
0.8
0.8
0.8
0.8
0.8
0.8
0.8
0.8
0.8
0.8
0.8
0.8
0.8
0.8
0.8
0.8
0.8
0.8
0.8
0.8
0.8
0.8
0.8
0.8
0.8
0.8
0.8
0.8
0.8
0.8
0.8
0.8
0.8
0.8
0.8
0.8
0.8
0.8
0.8
0.8
0.8
0.8
0.8
0.8
0.8
0.8
0.8
0.8
0.8
0.8
0.8
0.8
0.8
0.8
0.8
0.8
0.8
0.8
0.8
0.8
0.8
0.8
0.8
0.8
0.8
0.8
0.8
0.8
0.404401
0.407932
0.412697
0.418545
0.425305
0.432783
0.440782
0.449223
0.457875
0.46655
0.47569
0.484266
0.492737
0.501131
0.509489
0.517873
0.526359
0.535049
0.544078
0.553847
0.566675
0.582915
0.602641
0.623527
0.648669
0.667844
0.694656
0.700661
0.700581
0.691426
0.682821
0.676074
0.672503
0.672936
0.679268
0.691891
0.695313
0.694774
0.691185
0.684402
0.674998
0.665793
0.658165
0.652116
0.64715
0.642841
0.639032
0.635876
0.633779
0.633143
0.634275
0.637483
0.643274
0.652611
0.667214
0.689676
0.721956
0.758613
0.784747
0.79575
0.798982
0.799778
0.799953
0.79999
0.799998
0.8
0.8
0.8
0.8
0.8
0.8
0.8
0.8
0.8
0.8
0.8
0.8
0.8
0.8
0.8
0.8
0.8
0.8
0.8
0.8
0.8
0.8
0.8
0.8
0.8
0.8
0.8
0.8
0.8
0.8
0.8
0.8
0.8
0.8
0.8
0.8
0.8
0.8
0.8
0.8
0.8
0.8
0.8
0.8
0.8
0.8
0.8
0.8
0.8
0.8
0.8
0.8
0.8
0.8
0.8
0.8
0.8
0.8
0.8
0.8
0.8
0.8
0.8
0.8
0.8
0.8
0.8
0.8
0.8
0.8
0.8
0.8
0.8
0.8
0.8
0.8
0.8
0.8
0.8
0.8
0.8
0.8
0.8
0.8
0.8
0.411028
0.41478
0.419894
0.426209
0.433524
0.441594
0.450178
0.459126
0.468191
0.477269
0.486626
0.49606
0.505295
0.514157
0.523079
0.532199
0.541688
0.551784
0.562849
0.577587
0.597219
0.623379
0.6538
0.678923
0.713185
0.722925
0.738117
0.786907
0.782743
0.712926
0.709907
0.706126
0.705085
0.710267
0.728447
0.7525
0.761429
0.765656
0.763945
0.753978
0.734383
0.715446
0.701351
0.69098
0.682439
0.674443
0.666478
0.658805
0.652468
0.64848
0.647448
0.649862
0.656563
0.669204
0.690405
0.722137
0.758768
0.784949
0.795883
0.799041
0.799798
0.79996
0.799992
0.799999
0.8
0.8
0.8
0.8
0.8
0.8
0.8
0.8
0.8
0.8
0.8
0.8
0.8
0.8
0.8
0.8
0.8
0.8
0.8
0.8
0.8
0.8
0.8
0.8
0.8
0.8
0.8
0.8
0.8
0.8
0.8
0.8
0.8
0.8
0.8
0.8
0.8
0.8
0.8
0.8
0.8
0.8
0.8
0.8
0.8
0.8
0.8
0.8
0.8
0.8
0.8
0.8
0.8
0.8
0.8
0.8
0.8
0.8
0.8
0.8
0.8
0.8
0.8
0.8
0.8
0.8
0.8
0.8
0.8
0.8
0.8
0.8
0.8
0.8
0.8
0.8
0.8
0.8
0.8
0.8
0.8
0.8
0.8
0.8
0.8
0.8
0.417082
0.421164
0.426792
0.433801
0.441942
0.450887
0.460306
0.469958
0.479613
0.489233
0.498977
0.508809
0.518956
0.529268
0.539127
0.549505
0.56081
0.573643
0.589057
0.612641
0.643647
0.683299
0.724142
0.740827
0.764556
0.798744
0.799991
0.799986
0.799897
0.798508
0.778837
0.726959
0.7297
0.743688
0.769461
0.78399
0.79885
0.799974
0.799063
0.790285
0.747245
0.738327
0.730547
0.724517
0.718439
0.710649
0.700251
0.687669
0.675621
0.66704
0.663314
0.665326
0.674595
0.693689
0.7244
0.760386
0.785797
0.796193
0.799131
0.799821
0.799966
0.799994
0.799999
0.8
0.8
0.8
0.8
0.8
0.8
0.8
0.8
0.8
0.8
0.8
0.8
0.8
0.8
0.8
0.8
0.8
0.8
0.8
0.8
0.8
0.8
0.8
0.8
0.8
0.8
0.8
0.8
0.8
0.8
0.8
0.8
0.8
0.8
0.8
0.8
0.8
0.8
0.8
0.8
0.8
0.8
0.8
0.8
0.8
0.8
0.8
0.8
0.8
0.8
0.8
0.8
0.8
0.8
0.8
0.8
0.8
0.8
0.8
0.8
0.8
0.8
0.8
0.8
0.8
0.8
0.8
0.8
0.8
0.8
0.8
0.8
0.8
0.8
0.8
0.8
0.8
0.8
0.8
0.8
0.8
0.8
0.8
0.8
0.8
0.8
0.8
0.422611
0.427143
0.433493
0.441509
0.450875
0.461106
0.471694
0.482306
0.492763
0.503089
0.513427
0.523876
0.534688
0.546681
0.559174
0.572003
0.587071
0.60613
0.632741
0.672905
0.715603
0.760189
0.782621
0.799203
0.799994
0.799999
0.8
0.8
0.8
0.799998
0.799953
0.791136
0.761878
0.777899
0.794255
0.799929
0.8
0.8
0.799999
0.799974
0.791624
0.754255
0.755261
0.75719
0.757437
0.753352
0.742376
0.72321
0.70176
0.687111
0.681072
0.684665
0.700131
0.728839
0.763328
0.787202
0.796667
0.79926
0.79985
0.799972
0.799995
0.799999
0.8
0.8
0.8
0.8
0.8
0.8
0.8
0.8
0.8
0.8
0.8
0.8
0.8
0.8
0.8
0.8
0.8
0.8
0.8
0.8
0.8
0.8
0.8
0.8
0.8
0.8
0.8
0.8
0.8
0.8
0.8
0.8
0.8
0.8
0.8
0.8
0.8
0.8
0.8
0.8
0.8
0.8
0.8
0.8
0.8
0.8
0.8
0.8
0.8
0.8
0.8
0.8
0.8
0.8
0.8
0.8
0.8
0.8
0.8
0.8
0.8
0.8
0.8
0.8
0.8
0.8
0.8
0.8
0.8
0.8
0.8
0.8
0.8
0.8
0.8
0.8
0.8
0.8
0.8
0.8
0.8
0.8
0.8
0.8
0.8
0.8
0.8
0.8
0.42766
0.43277
0.440113
0.449609
0.460845
0.473029
0.485286
0.497225
0.508773
0.520057
0.531301
0.542763
0.55485
0.568431
0.585843
0.604796
0.628675
0.663417
0.72003
0.767924
0.788159
0.797099
0.799976
0.799999
0.8
0.8
0.8
0.8
0.8
0.8
0.8
0.799909
0.798099
0.794719
0.799752
0.799998
0.8
0.8
0.8
0.8
0.799966
0.790019
0.797069
0.798594
0.798264
0.794093
0.783755
0.731382
0.714177
0.702341
0.69969
0.710137
0.735407
0.767222
0.788918
0.797233
0.799415
0.799887
0.799979
0.799996
0.799999
0.8
0.8
0.8
0.8
0.8
0.8
0.8
0.8
0.8
0.8
0.8
0.8
0.8
0.8
0.8
0.8
0.8
0.8
0.8
0.8
0.8
0.8
0.8
0.8
0.8
0.8
0.8
0.8
0.8
0.8
0.8
0.8
0.8
0.8
0.8
0.8
0.8
0.8
0.8
0.8
0.8
0.8
0.8
0.8
0.8
0.8
0.8
0.8
0.8
0.8
0.8
0.8
0.8
0.8
0.8
0.8
0.8
0.8
0.8
0.8
0.8
0.8
0.8
0.8
0.8
0.8
0.8
0.8
0.8
0.8
0.8
0.8
0.8
0.8
0.8
0.8
0.8
0.8
0.8
0.8
0.8
0.8
0.8
0.8
0.8
0.8
0.8
0.8
0.8
0.432267
0.438068
0.446747
0.458478
0.472777
0.488216
0.503038
0.516939
0.530067
0.542774
0.555512
0.568812
0.583435
0.600727
0.623554
0.658514
0.700096
0.753321
0.790397
0.798292
0.799953
0.799993
0.8
0.8
0.8
0.8
0.8
0.8
0.8
0.8
0.8
0.8
0.799953
0.799046
0.799971
0.8
0.8
0.8
0.8
0.8
0.799936
0.798612
0.799922
0.799997
0.799994
0.799721
0.798068
0.739627
0.725556
0.718556
0.723706
0.744024
0.771682
0.790661
0.797785
0.799568
0.799925
0.799988
0.799998
0.8
0.8
0.8
0.8
0.8
0.8
0.8
0.8
0.8
0.8
0.8
0.8
0.8
0.8
0.8
0.8
0.8
0.8
0.8
0.8
0.8
0.8
0.8
0.8
0.8
0.8
0.8
0.8
0.8
0.8
0.8
0.8
0.8
0.8
0.8
0.8
0.8
0.8
0.8
0.8
0.8
0.8
0.8
0.8
0.8
0.8
0.8
0.8
0.8
0.8
0.8
0.8
0.8
0.8
0.8
0.8
0.8
0.8
0.8
0.8
0.8
0.8
0.8
0.8
0.8
0.8
0.8
0.8
0.8
0.8
0.8
0.8
0.8
0.8
0.8
0.8
0.8
0.8
0.8
0.8
0.8
0.8
0.8
0.8
0.8
0.8
0.8
0.8
0.8
0.8
0.8
0.436448
0.442969
0.453341
0.468546
0.488482
0.510469
0.529933
0.547163
0.562581
0.577289
0.592353
0.608769
0.627921
0.652062
0.685471
0.733079
0.776349
0.796685
0.79978
0.799995
0.8
0.8
0.8
0.8
0.8
0.8
0.8
0.8
0.8
0.8
0.8
0.8
0.799999
0.79987
0.799999
0.8
0.8
0.8
0.8
0.8
0.799994
0.799889
0.799999
0.8
0.8
0.799986
0.799165
0.74999
0.739852
0.740247
0.754487
0.776485
0.792248
0.798242
0.799692
0.799955
0.799994
0.799999
0.8
0.8
0.8
0.8
0.8
0.8
0.8
0.8
0.8
0.8
0.8
0.8
0.8
0.8
0.8
0.8
0.8
0.8
0.8
0.8
0.8
0.8
0.8
0.8
0.8
0.8
0.8
0.8
0.8
0.8
0.8
0.8
0.8
0.8
0.8
0.8
0.8
0.8
0.8
0.8
0.8
0.8
0.8
0.8
0.8
0.8
0.8
0.8
0.8
0.8
0.8
0.8
0.8
0.8
0.8
0.8
0.8
0.8
0.8
0.8
0.8
0.8
0.8
0.8
0.8
0.8
0.8
0.8
0.8
0.8
0.8
0.8
0.8
0.8
0.8
0.8
0.8
0.8
0.8
0.8
0.8
0.8
0.8
0.8
0.8
0.8
0.8
0.8
0.8
0.8
0.8
0.8
0.440202
0.447242
0.459332
0.480106
0.514644
0.562251
0.60331
0.640314
0.624826
0.636308
0.652756
0.671793
0.694869
0.724532
0.759124
0.786936
0.798278
0.799977
0.799999
0.8
0.8
0.8
0.8
0.8
0.8
0.8
0.8
0.8
0.8
0.8
0.8
0.8
0.8
0.799982
0.8
0.8
0.8
0.8
0.8
0.8
0.8
0.799995
0.8
0.8
0.8
0.8
0.798296
0.76275
0.758841
0.76601
0.781061
0.793379
0.79849
0.79976
0.799973
0.799998
0.8
0.8
0.8
0.8
0.8
0.8
0.8
0.8
0.8
0.8
0.8
0.8
0.8
0.8
0.8
0.8
0.8
0.8
0.8
0.8
0.8
0.8
0.8
0.8
0.8
0.8
0.8
0.8
0.8
0.8
0.8
0.8
0.8
0.8
0.8
0.8
0.8
0.8
0.8
0.8
0.8
0.8
0.8
0.8
0.8
0.8
0.8
0.8
0.8
0.8
0.8
0.8
0.8
0.8
0.8
0.8
0.8
0.8
0.8
0.8
0.8
0.8
0.8
0.8
0.8
0.8
0.8
0.8
0.8
0.8
0.8
0.8
0.8
0.8
0.8
0.8
0.8
0.8
0.8
0.8
0.8
0.8
0.8
0.8
0.8
0.8
0.8
0.8
0.8
0.8
0.8
0.8
0.8
0.8
0.44355
0.450572
0.462749
0.483889
0.518495
0.564893
0.707647
0.762235
0.748918
0.737477
0.745557
0.75887
0.766702
0.784271
0.794744
0.798711
0.799985
0.8
0.8
0.8
0.8
0.8
0.8
0.8
0.8
0.8
0.8
0.8
0.8
0.8
0.8
0.8
0.8
0.799998
0.8
0.8
0.8
0.8
0.8
0.8
0.8
0.8
0.8
0.8
0.8
0.8
0.79184
0.776023
0.777862
0.785881
0.794284
0.798533
0.799751
0.799972
0.799998
0.8
0.8
0.8
0.8
0.8
0.8
0.8
0.8
0.8
0.8
0.8
0.8
0.8
0.8
0.8
0.8
0.8
0.8
0.8
0.8
0.8
0.8
0.8
0.8
0.8
0.8
0.8
0.8
0.8
0.8
0.8
0.8
0.8
0.8
0.8
0.8
0.8
0.8
0.8
0.8
0.8
0.8
0.8
0.8
0.8
0.8
0.8
0.8
0.8
0.8
0.8
0.8
0.8
0.8
0.8
0.8
0.8
0.8
0.8
0.8
0.8
0.8
0.8
0.8
0.8
0.8
0.8
0.8
0.8
0.8
0.8
0.8
0.8
0.8
0.8
0.8
0.8
0.8
0.8
0.8
0.8
0.8
0.8
0.8
0.8
0.8
0.8
0.8
0.8
0.8
0.8
0.8
0.8
0.8
0.8
0.446715
0.453459
0.465018
0.484833
0.516578
0.557707
0.569302
0.799073
0.799319
0.799999
0.799969
0.799246
0.79401
0.799608
0.799941
0.799995
0.8
0.8
0.8
0.8
0.8
0.8
0.8
0.8
0.8
0.8
0.8
0.8
0.8
0.8
0.8
0.8
0.8
0.8
0.8
0.8
0.8
0.8
0.8
0.8
0.8
0.8
0.8
0.8
0.8
0.79999
0.796057
0.788458
0.790936
0.795518
0.798601
0.799717
0.799963
0.799997
0.8
0.8
0.8
0.8
0.8
0.8
0.8
0.8
0.8
0.8
0.8
0.8
0.8
0.8
0.8
0.8
0.8
0.8
0.8
0.8
0.8
0.8
0.8
0.8
0.8
0.8
0.8
0.8
0.8
0.8
0.8
0.8
0.8
0.8
0.8
0.8
0.8
0.8
0.8
0.8
0.8
0.8
0.8
0.8
0.8
0.8
0.8
0.8
0.8
0.8
0.8
0.8
0.8
0.8
0.8
0.8
0.8
0.8
0.8
0.8
0.8
0.8
0.8
0.8
0.8
0.8
0.8
0.8
0.8
0.8
0.8
0.8
0.8
0.8
0.8
0.8
0.8
0.8
0.8
0.8
0.8
0.8
0.8
0.8
0.8
0.8
0.8
0.8
0.8
0.8
0.8
0.8
0.8
0.8
0.8
0.8
0.449834
0.456206
0.466921
0.484896
0.512867
0.547779
0.561932
0.565788
0.799992
0.8
0.8
0.799993
0.799939
0.799997
0.8
0.8
0.8
0.8
0.8
0.8
0.8
0.8
0.8
0.8
0.8
0.8
0.8
0.8
0.8
0.8
0.8
0.8
0.8
0.8
0.8
0.8
0.8
0.8
0.8
0.8
0.8
0.8
0.8
0.8
0.8
0.799992
0.798165
0.795127
0.796873
0.798821
0.799705
0.79995
0.799994
0.8
0.8
0.8
0.8
0.8
0.8
0.8
0.8
0.8
0.8
0.8
0.8
0.8
0.8
0.8
0.8
0.8
0.8
0.8
0.8
0.8
0.8
0.8
0.8
0.8
0.8
0.8
0.8
0.8
0.8
0.8
0.8
0.8
0.8
0.8
0.8
0.8
0.8
0.8
0.8
0.8
0.8
0.8
0.8
0.8
0.8
0.8
0.8
0.8
0.8
0.8
0.8
0.8
0.8
0.8
0.8
0.8
0.8
0.8
0.8
0.8
0.8
0.8
0.8
0.8
0.8
0.8
0.8
0.8
0.8
0.8
0.8
0.8
0.8
0.8
0.8
0.8
0.8
0.8
0.8
0.8
0.8
0.8
0.8
0.8
0.8
0.8
0.8
0.8
0.8
0.8
0.8
0.8
0.8
0.8
0.8
0.8
0.452968
0.458934
0.468741
0.484778
0.509014
0.53858
0.554688
0.562238
0.565973
0.798474
0.8
0.8
0.799999
0.8
0.8
0.8
0.8
0.8
0.8
0.8
0.8
0.8
0.8
0.8
0.8
0.8
0.8
0.8
0.8
0.8
0.8
0.8
0.8
0.8
0.8
0.8
0.8
0.8
0.8
0.8
0.8
0.8
0.8
0.8
0.8
0.799994
0.799146
0.797973
0.799008
0.799752
0.799948
0.79999
0.8
0.8
0.8
0.8
0.8
0.8
0.8
0.8
0.8
0.8
0.8
0.8
0.8
0.8
0.8
0.8
0.8
0.8
0.8
0.8
0.8
0.8
0.8
0.8
0.8
0.8
0.8
0.8
0.8
0.8
0.8
0.8
0.8
0.8
0.8
0.8
0.8
0.8
0.8
0.8
0.8
0.8
0.8
0.8
0.8
0.8
0.8
0.8
0.8
0.8
0.8
0.8
0.8
0.8
0.8
0.8
0.8
0.8
0.8
0.8
0.8
0.8
0.8
0.8
0.8
0.8
0.8
0.8
0.8
0.8
0.8
0.8
0.8
0.8
0.8
0.8
0.8
0.8
0.8
0.8
0.8
0.8
0.8
0.8
0.8
0.8
0.8
0.8
0.8
0.8
0.8
0.8
0.8
0.8
0.8
0.8
0.8
0.8
0.456161
0.461724
0.470655
0.48488
0.505823
0.531105
0.547971
0.557866
0.563762
0.568521
0.672482
0.795694
0.799998
0.8
0.8
0.8
0.8
0.8
0.8
0.8
0.8
0.8
0.8
0.8
0.8
0.8
0.8
0.8
0.8
0.8
0.8
0.8
0.8
0.8
0.8
0.8
0.8
0.8
0.8
0.8
0.8
0.8
0.8
0.8
0.8
0.799996
0.799613
0.799048
0.799514
0.79998
0.799997
0.799999
0.8
0.8
0.8
0.8
0.8
0.8
0.8
0.8
0.8
0.8
0.8
0.8
0.8
0.8
0.8
0.8
0.8
0.8
0.8
0.8
0.8
0.8
0.8
0.8
0.8
0.8
0.8
0.8
0.8
0.8
0.8
0.8
0.8
0.8
0.8
0.8
0.8
0.8
0.8
0.8
0.8
0.8
0.8
0.8
0.8
0.8
0.8
0.8
0.8
0.8
0.8
0.8
0.8
0.8
0.8
0.8
0.8
0.8
0.8
0.8
0.8
0.8
0.8
0.8
0.8
0.8
0.8
0.8
0.8
0.8
0.8
0.8
0.8
0.8
0.8
0.8
0.8
0.8
0.8
0.8
0.8
0.8
0.8
0.8
0.8
0.8
0.8
0.8
0.8
0.8
0.8
0.8
0.8
0.8
0.8
0.8
0.8
0.8
0.459435
0.464622
0.472759
0.485396
0.503581
0.525446
0.54217
0.553403
0.560842
0.566388
0.572931
0.578783
0.587766
0.714347
0.795534
0.799969
0.8
0.8
0.8
0.8
0.8
0.8
0.8
0.8
0.8
0.8
0.8
0.8
0.8
0.8
0.8
0.8
0.8
0.8
0.8
0.8
0.8
0.8
0.8
0.8
0.8
0.8
0.8
0.8
0.8
0.799998
0.799833
0.799557
0.799758
0.799994
0.8
0.8
0.8
0.8
0.8
0.8
0.8
0.8
0.8
0.8
0.8
0.8
0.8
0.8
0.8
0.8
0.8
0.8
0.8
0.8
0.8
0.8
0.8
0.8
0.8
0.8
0.8
0.8
0.8
0.8
0.8
0.8
0.8
0.8
0.8
0.8
0.8
0.8
0.8
0.8
0.8
0.8
0.8
0.8
0.8
0.8
0.8
0.8
0.8
0.8
0.8
0.8
0.8
0.8
0.8
0.8
0.8
0.8
0.8
0.8
0.8
0.8
0.8
0.8
0.8
0.8
0.8
0.8
0.8
0.8
0.8
0.8
0.8
0.8
0.8
0.8
0.8
0.8
0.8
0.8
0.8
0.8
0.8
0.8
0.8
0.8
0.8
0.8
0.8
0.8
0.8
0.8
0.8
0.8
0.8
0.8
0.8
0.8
0.8
0.8
0.4628
0.467647
0.475092
0.486389
0.502327
0.521461
0.537536
0.549391
0.557849
0.56415
0.569737
0.57585
0.584498
0.599661
0.799804
0.799999
0.8
0.8
0.8
0.8
0.8
0.8
0.8
0.8
0.8
0.8
0.8
0.8
0.8
0.8
0.8
0.8
0.8
0.8
0.8
0.8
0.8
0.8
0.8
0.8
0.8
0.8
0.8
0.8
0.8
0.799999
0.799933
0.79981
0.799875
0.799962
0.799996
0.8
0.8
0.8
0.8
0.8
0.8
0.8
0.8
0.8
0.8
0.8
0.8
0.8
0.8
0.8
0.8
0.8
0.8
0.8
0.8
0.8
0.8
0.8
0.8
0.8
0.8
0.8
0.8
0.8
0.8
0.8
0.8
0.8
0.8
0.8
0.8
0.8
0.8
0.8
0.8
0.8
0.8
0.8
0.8
0.8
0.8
0.8
0.8
0.8
0.8
0.8
0.8
0.8
0.8
0.8
0.8
0.8
0.8
0.8
0.8
0.8
0.8
0.8
0.8
0.8
0.8
0.8
0.8
0.8
0.8
0.8
0.8
0.8
0.8
0.8
0.8
0.8
0.8
0.8
0.8
0.8
0.8
0.8
0.8
0.8
0.8
0.8
0.8
0.8
0.8
0.8
0.8
0.8
0.8
0.8
0.8
0.8
0.8
0.8
0.466251
0.470803
0.477663
0.487857
0.501993
0.518949
0.534165
0.546194
0.555313
0.562349
0.568379
0.574631
0.582599
0.595515
0.782239
0.799957
0.8
0.8
0.8
0.8
0.8
0.8
0.8
0.8
0.8
0.8
0.8
0.8
0.8
0.8
0.8
0.8
0.8
0.8
0.8
0.8
0.8
0.8
0.8
0.8
0.8
0.8
0.8
0.8
0.8
0.799999
0.799978
0.799931
0.799948
0.799984
0.799998
0.8
0.8
0.8
0.8
0.8
0.8
0.8
0.8
0.8
0.8
0.8
0.8
0.8
0.8
0.8
0.8
0.8
0.8
0.8
0.8
0.8
0.8
0.8
0.8
0.8
0.8
0.8
0.8
0.8
0.8
0.8
0.8
0.8
0.8
0.8
0.8
0.8
0.8
0.8
0.8
0.8
0.8
0.8
0.8
0.8
0.8
0.8
0.8
0.8
0.8
0.8
0.8
0.8
0.8
0.8
0.8
0.8
0.8
0.8
0.8
0.8
0.8
0.8
0.8
0.8
0.8
0.8
0.8
0.8
0.8
0.8
0.8
0.8
0.8
0.8
0.8
0.8
0.8
0.8
0.8
0.8
0.8
0.8
0.8
0.8
0.8
0.8
0.8
0.8
0.8
0.8
0.8
0.8
0.8
0.8
0.8
0.8
0.8
0.8
0.469779
0.474079
0.480457
0.489763
0.502475
0.517708
0.532031
0.543971
0.553476
0.561085
0.5676
0.573956
0.581244
0.591877
0.59889
0.644814
0.749856
0.795547
0.799814
0.799994
0.798185
0.799895
0.799996
0.8
0.8
0.8
0.8
0.8
0.8
0.8
0.8
0.799999
0.8
0.8
0.8
0.8
0.8
0.8
0.8
0.8
0.8
0.8
0.8
0.8
0.8
0.8
0.799998
0.799969
0.799979
0.799994
0.799999
0.8
0.8
0.8
0.8
0.8
0.8
0.8
0.8
0.8
0.8
0.8