/*--------------------------------*- C++ -*----------------------------------*\
| =========                 |                                                 |
| \\      /  F ield         | OpenFOAM: The Open Source CFD Toolbox           |
|  \\    /   O peration     | Version:  2.1.0                                 |
|   \\  /    A nd           | Web:      www.OpenFOAM.org                      |
|    \\/     M anipulation  |                                                 |
\*---------------------------------------------------------------------------*/
FoamFile
{
    version     2.0;
    format      ascii;
    class       volScalarField;
    location    "12045";
    object      sw;
}
// * * * * * * * * * * * * * * * * * * * * * * * * * * * * * * * * * * * * * //

dimensions      [0 0 0 0 0 0 0];

internalField   nonuniform List<scalar> 
15000
(
0.799999
0.79959
0.79478
0.781443
0.762666
0.742639
0.723294
0.705214
0.688485
0.673039
0.65877
0.645563
0.633316
0.621936
0.611338
0.60144
0.592167
0.583451
0.575241
0.567494
0.560169
0.553232
0.546652
0.5404
0.534447
0.528765
0.523331
0.518123
0.513119
0.508299
0.503645
0.49914
0.494769
0.490518
0.486374
0.482325
0.478358
0.474463
0.47063
0.466849
0.463109
0.459402
0.455718
0.452048
0.448385
0.444719
0.44104
0.43734
0.433609
0.429836
0.426008
0.422111
0.418128
0.414037
0.409814
0.405425
0.400826
0.39596
0.39075
0.385084
0.3788
0.371651
0.363249
0.352967
0.339755
0.321893
0.297066
0.26476
0.232504
0.212045
0.20367
0.201023
0.200274
0.200072
0.200018
0.200005
0.200001
0.2
0.2
0.2
0.2
0.2
0.2
0.2
0.2
0.2
0.2
0.2
0.2
0.2
0.2
0.2
0.2
0.2
0.2
0.2
0.2
0.2
0.2
0.2
0.2
0.2
0.2
0.2
0.2
0.2
0.2
0.2
0.2
0.2
0.2
0.2
0.2
0.2
0.2
0.2
0.2
0.2
0.2
0.2
0.2
0.2
0.2
0.2
0.2
0.2
0.2
0.2
0.2
0.2
0.2
0.2
0.2
0.2
0.2
0.2
0.2
0.2
0.2
0.2
0.2
0.2
0.2
0.2
0.2
0.2
0.2
0.2
0.2
0.2
0.799593
0.796853
0.787616
0.771974
0.75342
0.734503
0.716319
0.69923
0.683302
0.668497
0.654737
0.641939
0.630023
0.618911
0.608529
0.598805
0.589673
0.581074
0.572961
0.565294
0.558037
0.551161
0.544635
0.538431
0.53252
0.526878
0.521481
0.516307
0.511335
0.506544
0.501918
0.49744
0.493095
0.488869
0.484749
0.480722
0.476778
0.472904
0.469091
0.465329
0.461606
0.457913
0.454243
0.450584
0.44693
0.443269
0.439592
0.43589
0.432151
0.428364
0.424514
0.420587
0.416563
0.412419
0.408127
0.403648
0.398936
0.393926
0.38853
0.38262
0.376009
0.368411
0.359377
0.348174
0.333588
0.313715
0.286466
0.2533
0.224329
0.208446
0.202509
0.200695
0.200186
0.200049
0.200013
0.200003
0.200001
0.2
0.2
0.2
0.2
0.2
0.2
0.2
0.2
0.2
0.2
0.2
0.2
0.2
0.2
0.2
0.2
0.2
0.2
0.2
0.2
0.2
0.2
0.2
0.2
0.2
0.2
0.2
0.2
0.2
0.2
0.2
0.2
0.2
0.2
0.2
0.2
0.2
0.2
0.2
0.2
0.2
0.2
0.2
0.2
0.2
0.2
0.2
0.2
0.2
0.2
0.2
0.2
0.2
0.2
0.2
0.2
0.2
0.2
0.2
0.2
0.2
0.2
0.2
0.2
0.2
0.2
0.2
0.2
0.2
0.2
0.2
0.2
0.2
0.794848
0.787694
0.775135
0.759073
0.74171
0.724354
0.707612
0.691729
0.67678
0.662758
0.649628
0.637339
0.625836
0.61506
0.604951
0.595451
0.586501
0.578052
0.570066
0.562507
0.555346
0.548555
0.542106
0.535971
0.530124
0.524542
0.519201
0.514081
0.509158
0.504416
0.499837
0.495404
0.491102
0.486918
0.482838
0.47885
0.474943
0.471106
0.467328
0.463598
0.459907
0.456245
0.452601
0.448967
0.445333
0.441689
0.438024
0.434327
0.430588
0.426793
0.422927
0.418973
0.414911
0.410715
0.406354
0.401786
0.396958
0.391798
0.386206
0.380035
0.373067
0.364971
0.355216
0.342934
0.326703
0.304445
0.274707
0.241784
0.217244
0.205639
0.201638
0.200451
0.200121
0.200032
0.200008
0.200002
0.200001
0.2
0.2
0.2
0.2
0.2
0.2
0.2
0.2
0.2
0.2
0.2
0.2
0.2
0.2
0.2
0.2
0.2
0.2
0.2
0.2
0.2
0.2
0.2
0.2
0.2
0.2
0.2
0.2
0.2
0.2
0.2
0.2
0.2
0.2
0.2
0.2
0.2
0.2
0.2
0.2
0.2
0.2
0.2
0.2
0.2
0.2
0.2
0.2
0.2
0.2
0.2
0.2
0.2
0.2
0.2
0.2
0.2
0.2
0.2
0.2
0.2
0.2
0.2
0.2
0.2
0.2
0.2
0.2
0.2
0.2
0.2
0.2
0.2
0.781732
0.772252
0.759256
0.744317
0.728658
0.713015
0.697785
0.683171
0.669263
0.65609
0.643652
0.631929
0.620889
0.610492
0.600696
0.59145
0.582708
0.574434
0.566596
0.559168
0.552124
0.545437
0.539083
0.533036
0.527272
0.521767
0.5165
0.51145
0.506596
0.501919
0.497403
0.493031
0.488789
0.484663
0.480639
0.476705
0.472851
0.469066
0.465337
0.461655
0.45801
0.454391
0.450787
0.447189
0.443587
0.43997
0.436326
0.432644
0.428911
0.425114
0.421236
0.417259
0.41316
0.408912
0.40448
0.399818
0.394866
0.389543
0.383734
0.377268
0.369891
0.361209
0.350585
0.336976
0.318709
0.29366
0.26179
0.230845
0.21154
0.203589
0.201024
0.200281
0.200075
0.20002
0.200005
0.200001
0.2
0.2
0.2
0.2
0.2
0.2
0.2
0.2
0.2
0.2
0.2
0.2
0.2
0.2
0.2
0.2
0.2
0.2
0.2
0.2
0.2
0.2
0.2
0.2
0.2
0.2
0.2
0.2
0.2
0.2
0.2
0.2
0.2
0.2
0.2
0.2
0.2
0.2
0.2
0.2
0.2
0.2
0.2
0.2
0.2
0.2
0.2
0.2
0.2
0.2
0.2
0.2
0.2
0.2
0.2
0.2
0.2
0.2
0.2
0.2
0.2
0.2
0.2
0.2
0.2
0.2
0.2
0.2
0.2
0.2
0.2
0.2
0.2
0.2
0.76331
0.754008
0.742172
0.728924
0.715055
0.701075
0.6873
0.673919
0.661041
0.648723
0.636993
0.625857
0.615301
0.605306
0.595838
0.586861
0.578344
0.570261
0.562589
0.555307
0.548395
0.541828
0.535583
0.529639
0.523971
0.518558
0.51338
0.508416
0.503645
0.49905
0.494612
0.490317
0.48615
0.482095
0.478142
0.474278
0.470492
0.466772
0.463107
0.459488
0.455902
0.452339
0.448789
0.44524
0.441681
0.438101
0.434488
0.430828
0.427109
0.423316
0.419431
0.415433
0.411298
0.406995
0.402486
0.39772
0.392631
0.387123
0.381063
0.37425
0.36638
0.356977
0.345265
0.329969
0.309156
0.281022
0.248144
0.221229
0.207278
0.202176
0.200612
0.200167
0.200044
0.200012
0.200003
0.200001
0.2
0.2
0.2
0.2
0.2
0.2
0.2
0.2
0.2
0.2
0.2
0.2
0.2
0.2
0.2
0.2
0.2
0.2
0.2
0.2
0.2
0.2
0.2
0.2
0.2
0.2
0.2
0.2
0.2
0.2
0.2
0.2
0.2
0.2
0.2
0.2
0.2
0.2
0.2
0.2
0.2
0.2
0.2
0.2
0.2
0.2
0.2
0.2
0.2
0.2
0.2
0.2
0.2
0.2
0.2
0.2
0.2
0.2
0.2
0.2
0.2
0.2
0.2
0.2
0.2
0.2
0.2
0.2
0.2
0.2
0.2
0.2
0.2
0.2
0.743724
0.735488
0.725179
0.713621
0.701402
0.688933
0.676488
0.664252
0.652347
0.640851
0.629812
0.619253
0.60918
0.599584
0.590446
0.581742
0.573455
0.565571
0.558074
0.550948
0.544176
0.537738
0.531613
0.525781
0.520221
0.514913
0.509838
0.504973
0.5003
0.495799
0.491455
0.48725
0.48317
0.479202
0.475334
0.471553
0.467848
0.464208
0.460622
0.457079
0.453567
0.450075
0.446591
0.443103
0.4396
0.436068
0.432496
0.428869
0.425171
0.421387
0.417497
0.41348
0.409307
0.404945
0.400352
0.395469
0.39022
0.384494
0.378132
0.370893
0.362408
0.352087
0.338963
0.321475
0.297523
0.266462
0.23472
0.213531
0.204321
0.201255
0.200349
0.200094
0.200025
0.200007
0.200002
0.2
0.2
0.2
0.2
0.2
0.2
0.2
0.2
0.2
0.2
0.2
0.2
0.2
0.2
0.2
0.2
0.2
0.2
0.2
0.2
0.2
0.2
0.2
0.2
0.2
0.2
0.2
0.2
0.2
0.2
0.2
0.2
0.2
0.2
0.2
0.2
0.2
0.2
0.2
0.2
0.2
0.2
0.2
0.2
0.2
0.2
0.2
0.2
0.2
0.2
0.2
0.2
0.2
0.2
0.2
0.2
0.2
0.2
0.2
0.2
0.2
0.2
0.2
0.2
0.2
0.2
0.2
0.2
0.2
0.2
0.2
0.2
0.2
0.2
0.2
0.724887
0.717776
0.708873
0.698793
0.688006
0.676853
0.665583
0.654375
0.643359
0.632626
0.622236
0.612225
0.602612
0.593398
0.584576
0.576138
0.56808
0.560395
0.553075
0.546107
0.539478
0.533172
0.527172
0.521459
0.516016
0.510823
0.50586
0.501106
0.496542
0.49215
0.487911
0.48381
0.479831
0.475963
0.472192
0.468507
0.464897
0.46135
0.457857
0.454405
0.450981
0.447574
0.444171
0.440759
0.437325
0.433855
0.430334
0.426748
0.42308
0.419312
0.415422
0.411385
0.407171
0.402744
0.398053
0.393032
0.387592
0.381601
0.374863
0.367085
0.357804
0.346273
0.33127
0.310916
0.283325
0.250531
0.222814
0.207967
0.202413
0.200686
0.200189
0.200051
0.200013
0.200003
0.200001
0.2
0.2
0.2
0.2
0.2
0.2
0.2
0.2
0.2
0.2
0.2
0.2
0.2
0.2
0.2
0.2
0.2
0.2
0.2
0.2
0.2
0.2
0.2
0.2
0.2
0.2
0.2
0.2
0.2
0.2
0.2
0.2
0.2
0.2
0.2
0.2
0.2
0.2
0.2
0.2
0.2
0.2
0.2
0.2
0.2
0.2
0.2
0.2
0.2
0.2
0.2
0.2
0.2
0.2
0.2
0.2
0.2
0.2
0.2
0.2
0.2
0.2
0.2
0.2
0.2
0.2
0.2
0.2
0.2
0.2
0.2
0.2
0.2
0.2
0.2
0.707379
0.701224
0.693484
0.684631
0.675041
0.665005
0.654748
0.644441
0.634216
0.624168
0.614367
0.604858
0.595666
0.586803
0.578275
0.570089
0.562249
0.554756
0.547604
0.540789
0.5343
0.528126
0.52225
0.51666
0.511337
0.506264
0.501421
0.496788
0.492345
0.488073
0.483952
0.479966
0.476101
0.472343
0.468682
0.465105
0.461603
0.458165
0.454779
0.451432
0.448113
0.444806
0.4415
0.43818
0.43483
0.431435
0.42798
0.424447
0.420818
0.417071
0.413184
0.409128
0.40487
0.400365
0.395559
0.390373
0.384697
0.378371
0.371152
0.362667
0.352325
0.339156
0.321604
0.297578
0.266456
0.234698
0.213534
0.204336
0.201266
0.200354
0.200097
0.200026
0.200007
0.200002
0.2
0.2
0.2
0.2
0.2
0.2
0.2
0.2
0.2
0.2
0.2
0.2
0.2
0.2
0.2
0.2
0.2
0.2
0.2
0.2
0.2
0.2
0.2
0.2
0.2
0.2
0.2
0.2
0.2
0.2
0.2
0.2
0.2
0.2
0.2
0.2
0.2
0.2
0.2
0.2
0.2
0.2
0.2
0.2
0.2
0.2
0.2
0.2
0.2
0.2
0.2
0.2
0.2
0.2
0.2
0.2
0.2
0.2
0.2
0.2
0.2
0.2
0.2
0.2
0.2
0.2
0.2
0.2
0.2
0.2
0.2
0.2
0.2
0.2
0.2
0.2
0.691284
0.68589
0.679079
0.671216
0.662605
0.653497
0.644093
0.634556
0.625014
0.615566
0.606282
0.597214
0.588392
0.57984
0.571577
0.56362
0.555979
0.548661
0.541666
0.534992
0.528634
0.522582
0.516825
0.511352
0.506149
0.501198
0.49648
0.491977
0.487665
0.483524
0.479533
0.475674
0.471933
0.468298
0.464757
0.4613
0.457919
0.454602
0.451338
0.448114
0.444916
0.441729
0.438538
0.435327
0.432078
0.428776
0.425402
0.421936
0.418357
0.414641
0.410761
0.406686
0.402375
0.39778
0.392834
0.387442
0.381468
0.374708
0.366852
0.357414
0.345611
0.330164
0.309149
0.28081
0.247852
0.221056
0.207241
0.202184
0.200622
0.200172
0.200047
0.200012
0.200003
0.200001
0.2
0.2
0.2
0.2
0.2
0.2
0.2
0.2
0.2
0.2
0.2
0.2
0.2
0.2
0.2
0.2
0.2
0.2
0.2
0.2
0.2
0.2
0.2
0.2
0.2
0.2
0.2
0.2
0.2
0.2
0.2
0.2
0.2
0.2
0.2
0.2
0.2
0.2
0.2
0.2
0.2
0.2
0.2
0.2
0.2
0.2
0.2
0.2
0.2
0.2
0.2
0.2
0.2
0.2
0.2
0.2
0.2
0.2
0.2
0.2
0.2
0.2
0.2
0.2
0.2
0.2
0.2
0.2
0.2
0.2
0.2
0.2
0.2
0.2
0.2
0.2
0.676532
0.671734
0.665651
0.65857
0.650745
0.64239
0.633688
0.624791
0.615823
0.606878
0.59803
0.589332
0.580822
0.572536
0.564502
0.556744
0.549278
0.542113
0.535253
0.5287
0.522453
0.516506
0.510853
0.505486
0.500394
0.495563
0.490974
0.486606
0.482435
0.478437
0.474588
0.470868
0.467263
0.463761
0.46035
0.457024
0.453775
0.450594
0.447468
0.444384
0.441328
0.438281
0.435227
0.432147
0.429023
0.425835
0.422561
0.419179
0.415665
0.411989
0.408122
0.404027
0.399656
0.394951
0.389831
0.384176
0.377812
0.370473
0.361748
0.350982
0.337107
0.318442
0.29291
0.260722
0.23
0.211189
0.203509
0.201018
0.200285
0.200078
0.200021
0.200006
0.200001
0.2
0.2
0.2
0.2
0.2
0.2
0.2
0.2
0.2
0.2
0.2
0.2
0.2
0.2
0.2
0.2
0.2
0.2
0.2
0.2
0.2
0.2
0.2
0.2
0.2
0.2
0.2
0.2
0.2
0.2
0.2
0.2
0.2
0.2
0.2
0.2
0.2
0.2
0.2
0.2
0.2
0.2
0.2
0.2
0.2
0.2
0.2
0.2
0.2
0.2
0.2
0.2
0.2
0.2
0.2
0.2
0.2
0.2
0.2
0.2
0.2
0.2
0.2
0.2
0.2
0.2
0.2
0.2
0.2
0.2
0.2
0.2
0.2
0.2
0.2
0.2
0.2
0.663019
0.658681
0.653159
0.646687
0.639475
0.631715
0.623572
0.615188
0.606679
0.598138
0.589636
0.581231
0.572973
0.564904
0.557059
0.549465
0.542139
0.535094
0.528339
0.521877
0.51571
0.50984
0.504264
0.498981
0.493984
0.489262
0.484799
0.480572
0.476553
0.472711
0.469019
0.465453
0.461995
0.458634
0.455362
0.452176
0.449071
0.446039
0.44307
0.440148
0.437257
0.434377
0.431487
0.428566
0.425593
0.422545
0.419397
0.416123
0.412693
0.409073
0.405228
0.401111
0.396669
0.391828
0.386485
0.380485
0.373595
0.365459
0.355508
0.342827
0.325944
0.302792
0.272238
0.239428
0.215982
0.20523
0.201545
0.200437
0.200121
0.200033
0.200009
0.200002
0.200001
0.2
0.2
0.2
0.2
0.2
0.2
0.2
0.2
0.2
0.2
0.2
0.2
0.2
0.2
0.2
0.2
0.2
0.2
0.2
0.2
0.2
0.2
0.2
0.2
0.2
0.2
0.2
0.2
0.2
0.2
0.2
0.2
0.2
0.2
0.2
0.2
0.2
0.2
0.2
0.2
0.2
0.2
0.2
0.2
0.2
0.2
0.2
0.2
0.2
0.2
0.2
0.2
0.2
0.2
0.2
0.2
0.2
0.2
0.2
0.2
0.2
0.2
0.2
0.2
0.2
0.2
0.2
0.2
0.2
0.2
0.2
0.2
0.2
0.2
0.2
0.2
0.2
0.650641
0.646654
0.641555
0.635539
0.62879
0.621479
0.613759
0.605761
0.597595
0.58935
0.581102
0.572916
0.564847
0.556943
0.54924
0.541766
0.534539
0.527572
0.520878
0.514462
0.508332
0.502493
0.496951
0.491712
0.486777
0.482141
0.477793
0.47371
0.469856
0.466192
0.462677
0.459281
0.455982
0.452771
0.449644
0.446605
0.443654
0.440788
0.437995
0.435262
0.432567
0.429886
0.427195
0.424469
0.421684
0.418813
0.415827
0.412693
0.409375
0.405834
0.402021
0.397885
0.393357
0.388342
0.382705
0.376238
0.368619
0.359344
0.3476
0.332074
0.3108
0.281991
0.248423
0.221178
0.207228
0.202169
0.200618
0.200172
0.200047
0.200013
0.200003
0.200001
0.2
0.2
0.2
0.2
0.2
0.2
0.2
0.2
0.2
0.2
0.2
0.2
0.2
0.2
0.2
0.2
0.2
0.2
0.2
0.2
0.2
0.2
0.2
0.2
0.2
0.2
0.2
0.2
0.2
0.2
0.2
0.2
0.2
0.2
0.2
0.2
0.2
0.2
0.2
0.2
0.2
0.2
0.2
0.2
0.2
0.2
0.2
0.2
0.2
0.2
0.2
0.2
0.2
0.2
0.2
0.2
0.2
0.2
0.2
0.2
0.2
0.2
0.2
0.2
0.2
0.2
0.2
0.2
0.2
0.2
0.2
0.2
0.2
0.2
0.2
0.2
0.2
0.2
0.639304
0.635578
0.630783
0.625091
0.618668
0.61167
0.604239
0.596499
0.588555
0.5805
0.572417
0.564374
0.55643
0.548633
0.541019
0.533611
0.526429
0.519487
0.512796
0.506364
0.500202
0.494324
0.488744
0.483478
0.47854
0.473944
0.469686
0.465746
0.462078
0.458622
0.455317
0.452117
0.448994
0.44594
0.442961
0.440071
0.437282
0.434597
0.432008
0.429499
0.427042
0.424608
0.422165
0.419684
0.417137
0.414494
0.41172
0.408775
0.405613
0.402181
0.398424
0.394272
0.389638
0.384396
0.378359
0.371235
0.362563
0.3516
0.337141
0.317322
0.290039
0.256408
0.226267
0.209288
0.202812
0.200799
0.200222
0.200061
0.200016
0.200004
0.200001
0.2
0.2
0.2
0.2
0.2
0.2
0.2
0.2
0.2
0.2
0.2
0.2
0.2
0.2
0.2
0.2
0.2
0.2
0.2
0.2
0.2
0.2
0.2
0.2
0.2
0.2
0.2
0.2
0.2
0.2
0.2
0.2
0.2
0.2
0.2
0.2
0.2
0.2
0.2
0.2
0.2
0.2
0.2
0.2
0.2
0.2
0.2
0.2
0.2
0.2
0.2
0.2
0.2
0.2
0.2
0.2
0.2
0.2
0.2
0.2
0.2
0.2
0.2
0.2
0.2
0.2
0.2
0.2
0.2
0.2
0.2
0.2
0.2
0.2
0.2
0.2
0.2
0.2
0.2
0.628926
0.625382
0.620789
0.615302
0.609075
0.602256
0.594978
0.587363
0.579521
0.571554
0.563547
0.555571
0.547683
0.53993
0.53234
0.524937
0.517735
0.510746
0.503977
0.497439
0.491145
0.485114
0.47937
0.473751
0.468358
0.463428
0.459235
0.455508
0.452146
0.449046
0.446097
0.44322
0.440372
0.437542
0.434755
0.432046
0.429452
0.42699
0.424659
0.422441
0.420299
0.418191
0.416076
0.413918
0.411688
0.409351
0.406869
0.404189
0.40125
0.397985
0.394318
0.390159
0.38539
0.379839
0.373236
0.365154
0.354897
0.341332
0.322664
0.296622
0.263185
0.230864
0.211191
0.203382
0.200948
0.200259
0.20007
0.200019
0.200005
0.200001
0.2
0.2
0.2
0.2
0.2
0.2
0.2
0.2
0.2
0.2
0.2
0.2
0.2
0.2
0.2
0.2
0.2
0.2
0.2
0.2
0.2
0.2
0.2
0.2
0.2
0.2
0.2
0.2
0.2
0.2
0.2
0.2
0.2
0.2
0.2
0.2
0.2
0.2
0.2
0.2
0.2
0.2
0.2
0.2
0.2
0.2
0.2
0.2
0.2
0.2
0.2
0.2
0.2
0.2
0.2
0.2
0.2
0.2
0.2
0.2
0.2
0.2
0.2
0.2
0.2
0.2
0.2
0.2
0.2
0.2
0.2
0.2
0.2
0.2
0.2
0.2
0.2
0.2
0.2
0.2
0.619437
0.616007
0.61152
0.606125
0.599966
0.593186
0.585919
0.578295
0.570438
0.562454
0.554432
0.546441
0.538536
0.530754
0.523118
0.515644
0.50834
0.501207
0.494248
0.487469
0.48088
0.474495
0.467739
0.460939
0.454249
0.447956
0.442563
0.439046
0.436212
0.433847
0.431685
0.429543
0.427316
0.424986
0.422608
0.420279
0.418092
0.416094
0.414291
0.412653
0.411122
0.409617
0.408074
0.406454
0.404731
0.402878
0.400852
0.398588
0.396006
0.393012
0.389505
0.385362
0.38042
0.37443
0.36699
0.357441
0.344693
0.326995
0.301962
0.268776
0.234776
0.212789
0.203813
0.201036
0.200271
0.20007
0.200018
0.200005
0.200001
0.2
0.2
0.2
0.2
0.2
0.2
0.2
0.2
0.2
0.2
0.2
0.2
0.2
0.2
0.2
0.2
0.2
0.2
0.2
0.2
0.2
0.2
0.2
0.2
0.2
0.2
0.2
0.2
0.2
0.2
0.2
0.2
0.2
0.2
0.2
0.2
0.2
0.2
0.2
0.2
0.2
0.2
0.2
0.2
0.2
0.2
0.2
0.2
0.2
0.2
0.2
0.2
0.2
0.2
0.2
0.2
0.2
0.2
0.2
0.2
0.2
0.2
0.2
0.2
0.2
0.2
0.2
0.2
0.2
0.2
0.2
0.2
0.2
0.2
0.2
0.2
0.2
0.2
0.2
0.2
0.2
0.610775
0.607395
0.602926
0.597507
0.59128
0.584389
0.576984
0.569214
0.561217
0.553105
0.54497
0.536879
0.528876
0.520986
0.513222
0.505584
0.498067
0.490656
0.483339
0.476106
0.46895
0.4609
0.45235
0.443196
0.433433
0.423808
0.415022
0.410894
0.408956
0.408123
0.407613
0.406966
0.405915
0.404402
0.402569
0.400702
0.399098
0.397889
0.397099
0.396676
0.396479
0.396296
0.39598
0.395468
0.394753
0.393831
0.392667
0.391184
0.389268
0.386786
0.3836
0.379544
0.374387
0.367753
0.359014
0.34711
0.330307
0.306136
0.273212
0.237926
0.214028
0.204092
0.201064
0.200263
0.200065
0.200016
0.200004
0.200001
0.2
0.2
0.2
0.2
0.2
0.2
0.2
0.2
0.2
0.2
0.2
0.2
0.2
0.2
0.2
0.2
0.2
0.2
0.2
0.2
0.2
0.2
0.2
0.2
0.2
0.2
0.2
0.2
0.2
0.2
0.2
0.2
0.2
0.2
0.2
0.2
0.2
0.2
0.2
0.2
0.2
0.2
0.2
0.2
0.2
0.2
0.2
0.2
0.2
0.2
0.2
0.2
0.2
0.2
0.2
0.2
0.2
0.2
0.2
0.2
0.2
0.2
0.2
0.2
0.2
0.2
0.2
0.2
0.2
0.2
0.2
0.2
0.2
0.2
0.2
0.2
0.2
0.2
0.2
0.2
0.2
0.2
0.602849
0.59944
0.594885
0.589328
0.582918
0.57582
0.568204
0.560104
0.551717
0.543356
0.535007
0.526724
0.518535
0.510447
0.502453
0.494529
0.486644
0.478756
0.470816
0.462767
0.45356
0.442929
0.430558
0.416601
0.400659
0.385274
0.368466
0.362564
0.362074
0.364812
0.367952
0.370422
0.371544
0.37111
0.369444
0.367249
0.366018
0.36576
0.366569
0.368409
0.37098
0.373597
0.375825
0.377553
0.378842
0.379768
0.380332
0.38043
0.379867
0.378436
0.375939
0.372152
0.366737
0.359108
0.348234
0.332387
0.309024
0.276387
0.240201
0.214874
0.204235
0.201054
0.200245
0.200056
0.200013
0.200003
0.200001
0.2
0.2
0.2
0.2
0.2
0.2
0.2
0.2
0.2
0.2
0.2
0.2
0.2
0.2
0.2
0.2
0.2
0.2
0.2
0.2
0.2
0.2
0.2
0.2
0.2
0.2
0.2
0.2
0.2
0.2
0.2
0.2
0.2
0.2
0.2
0.2
0.2
0.2
0.2
0.2
0.2
0.2
0.2
0.2
0.2
0.2
0.2
0.2
0.2
0.2
0.2
0.2
0.2
0.2
0.2
0.2
0.2
0.2
0.2
0.2
0.2
0.2
0.2
0.2
0.2
0.2
0.2
0.2
0.2
0.2
0.2
0.2
0.2
0.2
0.2
0.2
0.2
0.2
0.2
0.2
0.2
0.2
0.2
0.595599
0.592068
0.587303
0.581455
0.574695
0.567217
0.559218
0.550777
0.542125
0.53345
0.52431
0.515734
0.507263
0.498869
0.490511
0.482127
0.473641
0.464951
0.455922
0.446153
0.433325
0.417085
0.397359
0.376473
0.351331
0.332156
0.305344
0.299339
0.299419
0.308574
0.317179
0.323926
0.327497
0.327064
0.320732
0.308109
0.304687
0.305226
0.308815
0.315598
0.325002
0.334207
0.341835
0.347884
0.35285
0.357159
0.360968
0.364124
0.366221
0.366857
0.365725
0.362517
0.356726
0.347389
0.332786
0.310324
0.278044
0.241387
0.215253
0.20425
0.201018
0.200222
0.200047
0.20001
0.200002
0.2
0.2
0.2
0.2
0.2
0.2
0.2
0.2
0.2
0.2
0.2
0.2
0.2
0.2
0.2
0.2
0.2
0.2
0.2
0.2
0.2
0.2
0.2
0.2
0.2
0.2
0.2
0.2
0.2
0.2
0.2
0.2
0.2
0.2
0.2
0.2
0.2
0.2
0.2
0.2
0.2
0.2
0.2
0.2
0.2
0.2
0.2
0.2
0.2
0.2
0.2
0.2
0.2
0.2
0.2
0.2
0.2
0.2
0.2
0.2
0.2
0.2
0.2
0.2
0.2
0.2
0.2
0.2
0.2
0.2
0.2
0.2
0.2
0.2
0.2
0.2
0.2
0.2
0.2
0.2
0.2
0.2
0.2
0.2
0.2
0.588972
0.58522
0.580106
0.573791
0.566476
0.558406
0.549822
0.540874
0.531809
0.522731
0.513374
0.50394
0.494705
0.485843
0.476921
0.467801
0.458312
0.448216
0.437151
0.422413
0.402781
0.376621
0.3462
0.321077
0.286815
0.277075
0.261883
0.213093
0.217257
0.287074
0.290093
0.293874
0.294915
0.289733
0.271553
0.2475
0.238571
0.234344
0.236055
0.246022
0.265617
0.284554
0.298649
0.30902
0.317561
0.325557
0.333522
0.341195
0.347532
0.35152
0.352552
0.350138
0.343437
0.330796
0.309595
0.277863
0.241232
0.215051
0.204117
0.200959
0.200202
0.20004
0.200008
0.200001
0.2
0.2
0.2
0.2
0.2
0.2
0.2
0.2
0.2
0.2
0.2
0.2
0.2
0.2
0.2
0.2
0.2
0.2
0.2
0.2
0.2
0.2
0.2
0.2
0.2
0.2
0.2
0.2
0.2
0.2
0.2
0.2
0.2
0.2
0.2
0.2
0.2
0.2
0.2
0.2
0.2
0.2
0.2
0.2
0.2
0.2
0.2
0.2
0.2
0.2
0.2
0.2
0.2
0.2
0.2
0.2
0.2
0.2
0.2
0.2
0.2
0.2
0.2
0.2
0.2
0.2
0.2
0.2
0.2
0.2
0.2
0.2
0.2
0.2
0.2
0.2
0.2
0.2
0.2
0.2
0.2
0.2
0.2
0.2
0.2
0.2
0.582918
0.578836
0.573208
0.566199
0.558058
0.549113
0.539694
0.530042
0.520387
0.510767
0.501023
0.491191
0.481044
0.470732
0.460873
0.450495
0.43919
0.426357
0.410943
0.387359
0.356353
0.316701
0.275858
0.259173
0.235444
0.201256
0.200009
0.200014
0.200103
0.201492
0.221163
0.273041
0.2703
0.256312
0.230539
0.21601
0.20115
0.200026
0.200937
0.209715
0.252755
0.261673
0.269453
0.275483
0.281561
0.289351
0.299749
0.312331
0.324379
0.33296
0.336686
0.334674
0.325405
0.306311
0.2756
0.239614
0.214203
0.203807
0.200869
0.200179
0.200034
0.200006
0.200001
0.2
0.2
0.2
0.2
0.2
0.2
0.2
0.2
0.2
0.2
0.2
0.2
0.2
0.2
0.2
0.2
0.2
0.2
0.2
0.2
0.2
0.2
0.2
0.2
0.2
0.2
0.2
0.2
0.2
0.2
0.2
0.2
0.2
0.2
0.2
0.2
0.2
0.2
0.2
0.2
0.2
0.2
0.2
0.2
0.2
0.2
0.2
0.2
0.2
0.2
0.2
0.2
0.2
0.2
0.2
0.2
0.2
0.2
0.2
0.2
0.2
0.2
0.2
0.2
0.2
0.2
0.2
0.2
0.2
0.2
0.2
0.2
0.2
0.2
0.2
0.2
0.2
0.2
0.2
0.2
0.2
0.2
0.2
0.2
0.2
0.2
0.2
0.577389
0.572857
0.566507
0.558491
0.549125
0.538894
0.528306
0.517694
0.507237
0.496911
0.486573
0.476124
0.465312
0.453319
0.440826
0.427997
0.412929
0.39387
0.367259
0.327095
0.284397
0.239811
0.217379
0.200797
0.200006
0.200001
0.2
0.2
0.2
0.200002
0.200047
0.208864
0.238122
0.222101
0.205745
0.200071
0.2
0.2
0.200001
0.200026
0.208376
0.245745
0.244739
0.24281
0.242563
0.246648
0.257624
0.27679
0.29824
0.312889
0.318928
0.315335
0.299869
0.271161
0.236672
0.212798
0.203333
0.20074
0.20015
0.200028
0.200005
0.200001
0.2
0.2
0.2
0.2
0.2
0.2
0.2
0.2
0.2
0.2
0.2
0.2
0.2
0.2
0.2
0.2
0.2
0.2
0.2
0.2
0.2
0.2
0.2
0.2
0.2
0.2
0.2
0.2
0.2
0.2
0.2
0.2
0.2
0.2
0.2
0.2
0.2
0.2
0.2
0.2
0.2
0.2
0.2
0.2
0.2
0.2
0.2
0.2
0.2
0.2
0.2
0.2
0.2
0.2
0.2
0.2
0.2
0.2
0.2
0.2
0.2
0.2
0.2
0.2
0.2
0.2
0.2
0.2
0.2
0.2
0.2
0.2
0.2
0.2
0.2
0.2
0.2
0.2
0.2
0.2
0.2
0.2
0.2
0.2
0.2
0.2
0.2
0.2
0.57234
0.56723
0.559887
0.550391
0.539155
0.526971
0.514714
0.502775
0.491227
0.479943
0.468699
0.457237
0.44515
0.431569
0.414157
0.395204
0.371325
0.336583
0.27997
0.232076
0.211841
0.202901
0.200024
0.200001
0.2
0.2
0.2
0.2
0.2
0.2
0.2
0.200091
0.201901
0.205281
0.200248
0.200002
0.2
0.2
0.2
0.2
0.200034
0.209981
0.202931
0.201406
0.201736
0.205907
0.216245
0.268618
0.285823
0.297659
0.30031
0.289863
0.264593
0.232778
0.211082
0.202767
0.200585
0.200113
0.200021
0.200004
0.200001
0.2
0.2
0.2
0.2
0.2
0.2
0.2
0.2
0.2
0.2
0.2
0.2
0.2
0.2
0.2
0.2
0.2
0.2
0.2
0.2
0.2
0.2
0.2
0.2
0.2
0.2
0.2
0.2
0.2
0.2
0.2
0.2
0.2
0.2
0.2
0.2
0.2
0.2
0.2
0.2
0.2
0.2
0.2
0.2
0.2
0.2
0.2
0.2
0.2
0.2
0.2
0.2
0.2
0.2
0.2
0.2
0.2
0.2
0.2
0.2
0.2
0.2
0.2
0.2
0.2
0.2
0.2
0.2
0.2
0.2
0.2
0.2
0.2
0.2
0.2
0.2
0.2
0.2
0.2
0.2
0.2
0.2
0.2
0.2
0.2
0.2
0.2
0.2
0.2
0.567733
0.561932
0.553253
0.541522
0.527223
0.511784
0.496962
0.483061
0.469933
0.457226
0.444488
0.431188
0.416565
0.399273
0.376446
0.341486
0.299904
0.246679
0.209603
0.201708
0.200047
0.200007
0.2
0.2
0.2
0.2
0.2
0.2
0.2
0.2
0.2
0.2
0.200047
0.200954
0.200029
0.2
0.2
0.2
0.2
0.2
0.200064
0.201388
0.200078
0.200003
0.200006
0.200279
0.201932
0.260373
0.274444
0.281444
0.276294
0.255976
0.228318
0.209339
0.202215
0.200432
0.200075
0.200012
0.200002
0.2
0.2
0.2
0.2
0.2
0.2
0.2
0.2
0.2
0.2
0.2
0.2
0.2
0.2
0.2
0.2
0.2
0.2
0.2
0.2
0.2
0.2
0.2
0.2
0.2
0.2
0.2
0.2
0.2
0.2
0.2
0.2
0.2
0.2
0.2
0.2
0.2
0.2
0.2
0.2
0.2
0.2
0.2
0.2
0.2
0.2
0.2
0.2
0.2
0.2
0.2
0.2
0.2
0.2
0.2
0.2
0.2
0.2
0.2
0.2
0.2
0.2
0.2
0.2
0.2
0.2
0.2
0.2
0.2
0.2
0.2
0.2
0.2
0.2
0.2
0.2
0.2
0.2
0.2
0.2
0.2
0.2
0.2
0.2
0.2
0.2
0.2
0.2
0.2
0.2
0.2
0.563552
0.557031
0.546659
0.531454
0.511518
0.489531
0.470067
0.452837
0.437419
0.422711
0.407647
0.391231
0.372079
0.347938
0.314529
0.266921
0.223651
0.203315
0.20022
0.200005
0.2
0.2
0.2
0.2
0.2
0.2
0.2
0.2
0.2
0.2
0.2
0.2
0.200001
0.20013
0.200001
0.2
0.2
0.2
0.2
0.2
0.200006
0.200111
0.200001
0.2
0.2
0.200014
0.200835
0.25001
0.260148
0.259753
0.245513
0.223515
0.207752
0.201758
0.200308
0.200045
0.200006
0.200001
0.2
0.2
0.2
0.2
0.2
0.2
0.2
0.2
0.2
0.2
0.2
0.2
0.2
0.2
0.2
0.2
0.2
0.2
0.2
0.2
0.2
0.2
0.2
0.2
0.2
0.2
0.2
0.2
0.2
0.2
0.2
0.2
0.2
0.2
0.2
0.2
0.2
0.2
0.2
0.2
0.2
0.2
0.2
0.2
0.2
0.2
0.2
0.2
0.2
0.2
0.2
0.2
0.2
0.2
0.2
0.2
0.2
0.2
0.2
0.2
0.2
0.2
0.2
0.2
0.2
0.2
0.2
0.2
0.2
0.2
0.2
0.2
0.2
0.2
0.2
0.2
0.2
0.2
0.2
0.2
0.2
0.2
0.2
0.2
0.2
0.2
0.2
0.2
0.2
0.2
0.2
0.2
0.559798
0.552758
0.540668
0.519894
0.485356
0.437749
0.39669
0.359686
0.375174
0.363692
0.347244
0.328207
0.305131
0.275468
0.240876
0.213064
0.201722
0.200023
0.200001
0.2
0.2
0.2
0.2
0.2
0.2
0.2
0.2
0.2
0.2
0.2
0.2
0.2
0.2
0.200018
0.2
0.2
0.2
0.2
0.2
0.2
0.2
0.200005
0.2
0.2
0.2
0.2
0.201704
0.23725
0.241159
0.23399
0.218939
0.206621
0.20151
0.20024
0.200027
0.200002
0.2
0.2
0.2
0.2
0.2
0.2
0.2
0.2
0.2
0.2
0.2
0.2
0.2
0.2
0.2
0.2
0.2
0.2
0.2
0.2
0.2
0.2
0.2
0.2
0.2
0.2
0.2
0.2
0.2
0.2
0.2
0.2
0.2
0.2
0.2
0.2
0.2
0.2
0.2
0.2
0.2
0.2
0.2
0.2
0.2
0.2
0.2
0.2
0.2
0.2
0.2
0.2
0.2
0.2
0.2
0.2
0.2
0.2
0.2
0.2
0.2
0.2
0.2
0.2
0.2
0.2
0.2
0.2
0.2
0.2
0.2
0.2
0.2
0.2
0.2
0.2
0.2
0.2
0.2
0.2
0.2
0.2
0.2
0.2
0.2
0.2
0.2
0.2
0.2
0.2
0.2
0.2
0.2
0.2
0.55645
0.549428
0.537251
0.516111
0.481505
0.435107
0.292353
0.237765
0.251082
0.262523
0.254443
0.24113
0.233298
0.215729
0.205256
0.201289
0.200015
0.2
0.2
0.2
0.2
0.2
0.2
0.2
0.2
0.2
0.2
0.2
0.2
0.2
0.2
0.2
0.2
0.200002
0.2
0.2
0.2
0.2
0.2
0.2
0.2
0.2
0.2
0.2
0.2
0.2
0.20816
0.223977
0.222138
0.214119
0.205716
0.201467
0.200249
0.200028
0.200002
0.2
0.2
0.2
0.2
0.2
0.2
0.2
0.2
0.2
0.2
0.2
0.2
0.2
0.2
0.2
0.2
0.2
0.2
0.2
0.2
0.2
0.2
0.2
0.2
0.2
0.2
0.2
0.2
0.2
0.2
0.2
0.2
0.2
0.2
0.2
0.2
0.2
0.2
0.2
0.2
0.2
0.2
0.2
0.2
0.2
0.2
0.2
0.2
0.2
0.2
0.2
0.2
0.2
0.2
0.2
0.2
0.2
0.2
0.2
0.2
0.2
0.2
0.2
0.2
0.2
0.2
0.2
0.2
0.2
0.2
0.2
0.2
0.2
0.2
0.2
0.2
0.2
0.2
0.2
0.2
0.2
0.2
0.2
0.2
0.2
0.2
0.2
0.2
0.2
0.2
0.2
0.2
0.2
0.2
0.2
0.553285
0.546541
0.534982
0.515167
0.483422
0.442293
0.430698
0.200927
0.200681
0.200001
0.200031
0.200754
0.20599
0.200392
0.200059
0.200005
0.2
0.2
0.2
0.2
0.2
0.2
0.2
0.2
0.2
0.2
0.2
0.2
0.2
0.2
0.2
0.2
0.2
0.2
0.2
0.2
0.2
0.2
0.2
0.2
0.2
0.2
0.2
0.2
0.2
0.20001
0.203943
0.211542
0.209064
0.204482
0.201399
0.200283
0.200037
0.200003
0.2
0.2
0.2
0.2
0.2
0.2
0.2
0.2
0.2
0.2
0.2
0.2
0.2
0.2
0.2
0.2
0.2
0.2
0.2
0.2
0.2
0.2
0.2
0.2
0.2
0.2
0.2
0.2
0.2
0.2
0.2
0.2
0.2
0.2
0.2
0.2
0.2
0.2
0.2
0.2
0.2
0.2
0.2
0.2
0.2
0.2
0.2
0.2
0.2
0.2
0.2
0.2
0.2
0.2
0.2
0.2
0.2
0.2
0.2
0.2
0.2
0.2
0.2
0.2
0.2
0.2
0.2
0.2
0.2
0.2
0.2
0.2
0.2
0.2
0.2
0.2
0.2
0.2
0.2
0.2
0.2
0.2
0.2
0.2
0.2
0.2
0.2
0.2
0.2
0.2
0.2
0.2
0.2
0.2
0.2
0.2
0.550166
0.543794
0.533079
0.515104
0.487133
0.452221
0.438068
0.434212
0.200008
0.2
0.2
0.200007
0.200061
0.200003
0.2
0.2
0.2
0.2
0.2
0.2
0.2
0.2
0.2
0.2
0.2
0.2
0.2
0.2
0.2
0.2
0.2
0.2
0.2
0.2
0.2
0.2
0.2
0.2
0.2
0.2
0.2
0.2
0.2
0.2
0.2
0.200008
0.201835
0.204873
0.203127
0.201179
0.200295
0.20005
0.200006
0.2
0.2
0.2
0.2
0.2
0.2
0.2
0.2
0.2
0.2
0.2
0.2
0.2
0.2
0.2
0.2
0.2
0.2
0.2
0.2
0.2
0.2
0.2
0.2
0.2
0.2
0.2
0.2
0.2
0.2
0.2
0.2
0.2
0.2
0.2
0.2
0.2
0.2
0.2
0.2
0.2
0.2
0.2
0.2
0.2
0.2
0.2
0.2
0.2
0.2
0.2
0.2
0.2
0.2
0.2
0.2
0.2
0.2
0.2
0.2
0.2
0.2
0.2
0.2
0.2
0.2
0.2
0.2
0.2
0.2
0.2
0.2
0.2
0.2
0.2
0.2
0.2
0.2
0.2
0.2
0.2
0.2
0.2
0.2
0.2
0.2
0.2
0.2
0.2
0.2
0.2
0.2
0.2
0.2
0.2
0.2
0.2
0.547032
0.541066
0.531259
0.515222
0.490986
0.46142
0.445312
0.437762
0.434027
0.201526
0.2
0.2
0.200001
0.2
0.2
0.2
0.2
0.2
0.2
0.2
0.2
0.2
0.2
0.2
0.2
0.2
0.2
0.2
0.2
0.2
0.2
0.2
0.2
0.2
0.2
0.2
0.2
0.2
0.2
0.2
0.2
0.2
0.2
0.2
0.2
0.200006
0.200854
0.202027
0.200992
0.200248
0.200052
0.20001
0.2
0.2
0.2
0.2
0.2
0.2
0.2
0.2
0.2
0.2
0.2
0.2
0.2
0.2
0.2
0.2
0.2
0.2
0.2
0.2
0.2
0.2
0.2
0.2
0.2
0.2
0.2
0.2
0.2
0.2
0.2
0.2
0.2
0.2
0.2
0.2
0.2
0.2
0.2
0.2
0.2
0.2
0.2
0.2
0.2
0.2
0.2
0.2
0.2
0.2
0.2
0.2
0.2
0.2
0.2
0.2
0.2
0.2
0.2
0.2
0.2
0.2
0.2
0.2
0.2
0.2
0.2
0.2
0.2
0.2
0.2
0.2
0.2
0.2
0.2
0.2
0.2
0.2
0.2
0.2
0.2
0.2
0.2
0.2
0.2
0.2
0.2
0.2
0.2
0.2
0.2
0.2
0.2
0.2
0.2
0.2
0.2
0.2
0.543839
0.538276
0.529345
0.51512
0.494177
0.468895
0.452029
0.442134
0.436238
0.431479
0.327518
0.204306
0.200002
0.2
0.2
0.2
0.2
0.2
0.2
0.2
0.2
0.2
0.2
0.2
0.2
0.2
0.2
0.2
0.2
0.2
0.2
0.2
0.2
0.2
0.2
0.2
0.2
0.2
0.2
0.2
0.2
0.2
0.2
0.2
0.2
0.200004
0.200387
0.200952
0.200486
0.20002
0.200003
0.200001
0.2
0.2
0.2
0.2
0.2
0.2
0.2
0.2
0.2
0.2
0.2
0.2
0.2
0.2
0.2
0.2
0.2
0.2
0.2
0.2
0.2
0.2
0.2
0.2
0.2
0.2
0.2
0.2
0.2
0.2
0.2
0.2
0.2
0.2
0.2
0.2
0.2
0.2
0.2
0.2
0.2
0.2
0.2
0.2
0.2
0.2
0.2
0.2
0.2
0.2
0.2
0.2
0.2
0.2
0.2
0.2
0.2
0.2
0.2
0.2
0.2
0.2
0.2
0.2
0.2
0.2
0.2
0.2
0.2
0.2
0.2
0.2
0.2
0.2
0.2
0.2
0.2
0.2
0.2
0.2
0.2
0.2
0.2
0.2
0.2
0.2
0.2
0.2
0.2
0.2
0.2
0.2
0.2
0.2
0.2
0.2
0.2
0.2
0.540565
0.535378
0.527241
0.514604
0.496419
0.474554
0.45783
0.446597
0.439158
0.433612
0.427069
0.421217
0.412234
0.285653
0.204466
0.200031
0.2
0.2
0.2
0.2
0.2
0.2
0.2
0.2
0.2
0.2
0.2
0.2
0.2
0.2
0.2
0.2
0.2
0.2
0.2
0.2
0.2
0.2
0.2
0.2
0.2
0.2
0.2
0.2
0.2
0.200002
0.200167
0.200443
0.200242
0.200006
0.2
0.2
0.2
0.2
0.2
0.2
0.2
0.2
0.2
0.2
0.2
0.2
0.2
0.2
0.2
0.2
0.2
0.2
0.2
0.2
0.2
0.2
0.2
0.2
0.2
0.2
0.2
0.2
0.2
0.2
0.2
0.2
0.2
0.2
0.2
0.2
0.2
0.2
0.2
0.2
0.2
0.2
0.2
0.2
0.2
0.2
0.2
0.2
0.2
0.2
0.2
0.2
0.2
0.2
0.2
0.2
0.2
0.2
0.2
0.2
0.2
0.2
0.2
0.2
0.2
0.2
0.2
0.2
0.2
0.2
0.2
0.2
0.2
0.2
0.2
0.2
0.2
0.2
0.2
0.2
0.2
0.2
0.2
0.2
0.2
0.2
0.2
0.2
0.2
0.2
0.2
0.2
0.2
0.2
0.2
0.2
0.2
0.2
0.2
0.2
0.5372
0.532353
0.524908
0.513611
0.497673
0.478539
0.462464
0.450609
0.442151
0.43585
0.430263
0.42415
0.415502
0.400339
0.200196
0.200001
0.2
0.2
0.2
0.2
0.2
0.2
0.2
0.2
0.2
0.2
0.2
0.2
0.2
0.2
0.2
0.2
0.2
0.2
0.2
0.2
0.2
0.2
0.2
0.2
0.2
0.2
0.2
0.2
0.2
0.200001
0.200067
0.20019
0.200125
0.200038
0.200004
0.2
0.2
0.2
0.2
0.2
0.2
0.2
0.2
0.2
0.2
0.2
0.2
0.2
0.2
0.2
0.2
0.2
0.2
0.2
0.2
0.2
0.2
0.2
0.2
0.2
0.2
0.2
0.2
0.2
0.2
0.2
0.2
0.2
0.2
0.2
0.2
0.2
0.2
0.2
0.2
0.2
0.2
0.2
0.2
0.2
0.2
0.2
0.2
0.2
0.2
0.2
0.2
0.2
0.2
0.2
0.2
0.2
0.2
0.2
0.2
0.2
0.2
0.2
0.2
0.2
0.2
0.2
0.2
0.2
0.2
0.2
0.2
0.2
0.2
0.2
0.2
0.2
0.2
0.2
0.2
0.2
0.2
0.2
0.2
0.2
0.2
0.2
0.2
0.2
0.2
0.2
0.2
0.2
0.2
0.2
0.2
0.2
0.2
0.2
0.533749
0.529197
0.522337
0.512143
0.498007
0.481051
0.465835
0.453806
0.444687
0.437651
0.431621
0.425369
0.417401
0.404485
0.217761
0.200043
0.2
0.2
0.2
0.2
0.2
0.2
0.2
0.2
0.2
0.2
0.2
0.2
0.2
0.2
0.2
0.2
0.2
0.2
0.2
0.2
0.2
0.2
0.2
0.2
0.2
0.2
0.2
0.2
0.2
0.200001
0.200022
0.200069
0.200052
0.200016
0.200002
0.2
0.2
0.2
0.2
0.2
0.2
0.2
0.2
0.2
0.2
0.2
0.2
0.2
0.2
0.2
0.2
0.2
0.2
0.2
0.2
0.2
0.2
0.2
0.2
0.2
0.2
0.2
0.2
0.2
0.2
0.2
0.2
0.2
0.2
0.2
0.2
0.2
0.2
0.2
0.2
0.2
0.2
0.2
0.2
0.2
0.2
0.2
0.2
0.2
0.2
0.2
0.2
0.2
0.2
0.2
0.2
0.2
0.2
0.2
0.2
0.2
0.2
0.2
0.2
0.2
0.2
0.2
0.2
0.2
0.2
0.2
0.2
0.2
0.2
0.2
0.2
0.2
0.2
0.2
0.2
0.2
0.2
0.2
0.2
0.2
0.2
0.2
0.2
0.2
0.2
0.2
0.2
0.2
0.2
0.2
0.2
0.2
0.2
0.2
0.530221
0.525921
0.519543
0.510237
0.497525
0.482292
0.467969
0.456029
0.446524
0.438915
0.4324
0.426044
0.418756
0.408123
0.40111
0.355186
0.250144
0.204453
0.200186
0.200006
0.201815
0.200105
0.200004
0.2
0.2
0.2
0.2
0.2
0.2
0.2
0.2
0.200001
0.2
0.2
0.2
0.2
0.2
0.2
0.2
0.2
0.2
0.2
0.2
0.2
0.2
0.2
0.200002
0.200031
0.200021
0.200006
0.200001
0.2
0.2
0.2
0.2
0.2
0.2
0.2
0.2
0.2
0.2
0.2