/*--------------------------------*- C++ -*----------------------------------*\
| =========                 |                                                 |
| \\      /  F ield         | OpenFOAM: The Open Source CFD Toolbox           |
|  \\    /   O peration     | Version:  2.1.0                                 |
|   \\  /    A nd           | Web:      www.OpenFOAM.org                      |
|    \\/     M anipulation  |                                                 |
\*---------------------------------------------------------------------------*/
FoamFile
{
    version     2.0;
    format      ascii;
    class       volScalarField;
    location    "64240";
    object      kr_o;
}
// * * * * * * * * * * * * * * * * * * * * * * * * * * * * * * * * * * * * * //

dimensions      [0 0 0 0 0 0 0];

internalField   nonuniform List<scalar> 
15000
(
1.46341e-14
1.00787e-06
2.19248e-06
2.65579e-06
8.82456e-06
6.26381e-05
0.000282788
0.000802305
0.00166669
0.00283527
0.00423885
0.0058174
0.0075276
0.00933758
0.0112242
0.0131692
0.015157
0.017175
0.019212
0.0212589
0.0233073
0.0253506
0.0273834
0.0294012
0.0314008
0.0333801
0.0353371
0.0372716
0.0391831
0.0410715
0.0429379
0.0447827
0.0466074
0.0484129
0.0502011
0.0519735
0.0537316
0.0554773
0.0572121
0.0589382
0.0606573
0.0623713
0.064082
0.0657914
0.0675008
0.0692112
0.0709232
0.0726375
0.0743543
0.0760733
0.0777941
0.0795161
0.0812387
0.0829605
0.0846803
0.0863968
0.0881086
0.0898137
0.0915107
0.0931981
0.0948744
0.0965383
0.0981893
0.0998258
0.101448
0.103054
0.104646
0.106223
0.107785
0.109333
0.110867
0.112388
0.113896
0.115391
0.116875
0.118348
0.11981
0.121262
0.122705
0.124138
0.125563
0.126979
0.128386
0.129786
0.131178
0.132561
0.133937
0.135303
0.136661
0.138008
0.139346
0.140672
0.141986
0.143288
0.144576
0.145848
0.147105
0.148343
0.149563
0.150762
0.15194
0.153094
0.154224
0.155328
0.156404
0.157451
0.158469
0.159455
0.160409
0.161331
0.16222
0.163076
0.1639
0.164693
0.165456
0.166189
0.166896
0.167576
0.168231
0.168865
0.169483
0.170091
0.170702
0.171329
0.171988
0.172697
0.173462
0.174261
0.175025
0.175659
0.176147
0.176507
0.176772
0.177038
0.177306
0.17758
0.177863
0.178157
0.178464
0.178788
0.179133
0.179508
0.179924
0.180398
0.180953
0.181625
0.182474
0.18362
0.185353
0.188847
9.90286e-07
2.82301e-06
3.81828e-06
3.76853e-06
1.52479e-05
9.71039e-05
0.000380002
0.000979977
0.00191581
0.0031362
0.00457455
0.00617614
0.00790188
0.00972295
0.0116177
0.0135691
0.0155625
0.0175854
0.0196268
0.0216779
0.0237302
0.0257772
0.0278134
0.0298342
0.0318365
0.0338182
0.0357774
0.0377134
0.0396261
0.0415153
0.0433819
0.0452266
0.0470508
0.0488557
0.0506429
0.052414
0.0541706
0.0559146
0.0576475
0.0593711
0.0610875
0.0627987
0.0645071
0.0662139
0.0679207
0.0696287
0.0713387
0.0730508
0.0747655
0.0764827
0.0782023
0.0799234
0.0816454
0.0833673
0.0850879
0.0868055
0.0885187
0.0902256
0.0919246
0.0936143
0.0952931
0.0969591
0.0986121
0.100251
0.101875
0.103484
0.105078
0.106657
0.108221
0.10977
0.111306
0.112829
0.114338
0.115834
0.117319
0.118793
0.120256
0.121708
0.123152
0.124586
0.126011
0.127428
0.128836
0.130237
0.13163
0.133016
0.134394
0.135763
0.137123
0.138475
0.139816
0.141148
0.142468
0.143776
0.14507
0.146351
0.147617
0.148866
0.150098
0.151312
0.152506
0.15368
0.154831
0.15596
0.157066
0.158147
0.159204
0.160236
0.161244
0.162229
0.16319
0.164132
0.165055
0.165962
0.166856
0.167739
0.168613
0.169476
0.17033
0.171177
0.172025
0.172894
0.173816
0.174834
0.176007
0.177403
0.179069
0.180967
0.182823
0.184184
0.185077
0.185606
0.185872
0.18604
0.186115
0.186118
0.186088
0.186043
0.18597
0.185851
0.185676
0.18546
0.18523
0.185027
0.184895
0.184885
0.185067
0.18556
0.186656
0.189521
2.18099e-06
3.87993e-06
4.70203e-06
6.9657e-06
3.73252e-05
0.000182036
0.000572114
0.00128611
0.00231195
0.00359265
0.00506883
0.00669409
0.00843531
0.0102674
0.0121706
0.0141287
0.016128
0.0181563
0.0202029
0.0222585
0.0243151
0.0263658
0.0284052
0.0304286
0.032433
0.0344159
0.0363758
0.0383116
0.0402235
0.0421114
0.0439759
0.0458184
0.0476394
0.0494407
0.0512239
0.0529903
0.0547418
0.0564798
0.0582065
0.0599238
0.0616341
0.0633392
0.0650411
0.0667419
0.0684429
0.0701452
0.0718497
0.0735572
0.0752677
0.0769814
0.0786981
0.0804174
0.0821382
0.0838595
0.0855802
0.0872988
0.0890132
0.090722
0.0924233
0.0941153
0.0957968
0.0974658
0.0991215
0.100763
0.102389
0.104
0.105596
0.107177
0.108742
0.110293
0.111829
0.113352
0.114861
0.116358
0.117843
0.119316
0.120779
0.122231
0.123674
0.125107
0.126532
0.127949
0.129358
0.130759
0.132154
0.13354
0.13492
0.136291
0.137655
0.13901
0.140356
0.141693
0.143019
0.144335
0.145639
0.14693
0.148208
0.149472
0.150721
0.151954
0.15317
0.154369
0.15555
0.156712
0.157857
0.158983
0.160093
0.161187
0.162266
0.163334
0.164394
0.165451
0.166511
0.167579
0.168663
0.169769
0.170899
0.172056
0.173233
0.174426
0.175642
0.176916
0.178311
0.179923
0.181886
0.184363
0.187514
0.191371
0.195194
0.197393
0.198638
0.199288
0.199542
0.199511
0.199188
0.198614
0.197967
0.197303
0.19657
0.195693
0.194633
0.193429
0.192153
0.190894
0.189737
0.188763
0.188052
0.187725
0.188066
0.190237
2.68709e-06
3.94568e-06
6.91606e-06
2.37002e-05
0.000107756
0.00036648
0.000903263
0.00174836
0.00286794
0.0042079
0.00572047
0.00736847
0.00912445
0.0109672
0.0128788
0.0148442
0.0168501
0.0188846
0.0209371
0.0229981
0.0250595
0.0271143
0.0291571
0.0311831
0.033189
0.0351723
0.0371315
0.0390658
0.040975
0.0428594
0.0447196
0.0465566
0.0483717
0.0501664
0.0519422
0.0537005
0.0554431
0.0571721
0.0588893
0.0605966
0.0622963
0.0639911
0.065683
0.0673737
0.069065
0.0707582
0.0724544
0.0741541
0.075858
0.0775661
0.0792784
0.0809941
0.0827126
0.0844329
0.0861534
0.0878726
0.0895886
0.0912996
0.0930039
0.0946992
0.0963838
0.0980562
0.0997153
0.10136
0.102989
0.104602
0.106199
0.107781
0.109347
0.110898
0.112435
0.113958
0.115466
0.116962
0.118445
0.119917
0.121378
0.122829
0.12427
0.125702
0.127126
0.128542
0.129951
0.131352
0.132747
0.134135
0.135516
0.136891
0.138258
0.139618
0.140969
0.142312
0.143646
0.144971
0.146286
0.14759
0.148883
0.150164
0.151433
0.152689
0.153932
0.155162
0.156378
0.157582
0.158775
0.159957
0.16113
0.162299
0.163467
0.16464
0.165824
0.167029
0.168266
0.169549
0.170895
0.172323
0.173847
0.175474
0.177187
0.178932
0.180693
0.182521
0.184525
0.186871
0.189792
0.193591
0.198613
0.205274
0.211813
0.21395
0.215057
0.21563
0.215859
0.21562
0.214814
0.213392
0.21195
0.210614
0.209207
0.207506
0.205392
0.202963
0.200358
0.197744
0.195285
0.19311
0.191321
0.190041
0.189544
0.190982
8.21731e-06
1.43661e-05
3.52002e-05
0.000104532
0.000301252
0.000721438
0.00141962
0.00238966
0.00359229
0.00498372
0.00652794
0.00819621
0.0099663
0.0118199
0.0137407
0.0157145
0.0177284
0.0197705
0.0218302
0.023898
0.0259654
0.0280254
0.0300721
0.0321008
0.034108
0.0360912
0.0380487
0.0399797
0.0418846
0.043763
0.0456164
0.0474456
0.0492521
0.051037
0.052802
0.0545489
0.0562792
0.057995
0.0596981
0.0613911
0.0630768
0.0647571
0.0664346
0.0681115
0.0697893
0.0714697
0.0731538
0.0748428
0.0765374
0.0782375
0.0799432
0.0816542
0.0833695
0.0850879
0.0868081
0.0885282
0.0902463
0.0919602
0.093668
0.0953677
0.0970566
0.0987332
0.100396
0.102044
0.103676
0.105292
0.106891
0.108474
0.11004
0.111591
0.113126
0.114647
0.116154
0.117648
0.11913
0.1206
0.122058
0.123507
0.124945
0.126375
0.127797
0.129211
0.130618
0.132019
0.133414
0.134802
0.136185
0.137562
0.138932
0.140297
0.141654
0.143004
0.144347
0.145682
0.14701
0.148329
0.14964
0.150941
0.152234
0.153517
0.154791
0.156057
0.157315
0.158567
0.159814
0.161061
0.162311
0.163568
0.164841
0.166137
0.16747
0.168856
0.170316
0.171879
0.173583
0.175474
0.177602
0.180004
0.182633
0.185223
0.187697
0.190143
0.192748
0.19576
0.19951
0.204433
0.211066
0.220779
0.229057
0.229374
0.230216
0.230592
0.230829
0.230624
0.229669
0.227307
0.225195
0.223589
0.221973
0.219843
0.21686
0.213257
0.209272
0.205155
0.201215
0.197684
0.194704
0.192401
0.191035
0.191738
5.55564e-05
8.75952e-05
0.000168117
0.000348767
0.000706088
0.00129882
0.00214123
0.00321333
0.00448204
0.00591498
0.00748596
0.00917281
0.0109571
0.0128225
0.0147544
0.0167387
0.0187629
0.0208151
0.0228843
0.024961
0.0270362
0.029103
0.0311548
0.0331869
0.0351955
0.0371779
0.0391329
0.0410595
0.0429579
0.0448284
0.0466726
0.0484913
0.0502859
0.0520581
0.0538093
0.0555412
0.0572552
0.0589538
0.0606395
0.0623141
0.0639808
0.0656423
0.067301
0.0689593
0.070619
0.0722823
0.0739507
0.0756255
0.0773073
0.0789969
0.0806941
0.0823984
0.0841092
0.0858251
0.0875447
0.0892658
0.0909867
0.0927047
0.094417
0.0961218
0.0978161
0.0994984
0.101166
0.102818
0.104454
0.106073
0.107673
0.109257
0.110823
0.112373
0.113907
0.115426
0.11693
0.118421
0.119899
0.121366
0.122821
0.124265
0.1257
0.127127
0.128545
0.129956
0.131361
0.13276
0.134154
0.135542
0.136926
0.138305
0.13968
0.141049
0.142413
0.143771
0.145123
0.146471
0.147813
0.149149
0.150479
0.151804
0.153122
0.154436
0.155745
0.157051
0.158356
0.159662
0.160973
0.162292
0.163627
0.164986
0.166377
0.167818
0.169325
0.170927
0.172662
0.174582
0.176763
0.179309
0.182354
0.186044
0.190283
0.194021
0.197207
0.200107
0.203042
0.20635
0.210415
0.215717
0.222832
0.234656
0.239413
0.249321
0.258472
0.267512
0.271887
0.266922
0.254894
0.232735
0.231343
0.23078
0.230148
0.228856
0.22607
0.222171
0.217522
0.212204
0.206892
0.20206
0.197936
0.194655
0.192464
0.192482
0.000249524
0.000340915
0.0005252
0.000851035
0.00137054
0.00210876
0.00306199
0.00421001
0.00552877
0.00699516
0.00858958
0.0102947
0.0120945
0.0139742
0.0159198
0.0179179
0.0199558
0.0220213
0.0241034
0.0261922
0.0282783
0.0303542
0.0324131
0.0344498
0.0364605
0.0384425
0.0403939
0.0423147
0.0442049
0.0460656
0.0478977
0.0497032
0.0514833
0.0532395
0.0549734
0.0566865
0.0583809
0.0600583
0.0617214
0.063373
0.0650162
0.0666535
0.068288
0.0699225
0.0715593
0.0732007
0.0748486
0.0765049
0.0781707
0.0798462
0.0815321
0.0832281
0.0849331
0.0866458
0.0883649
0.0900876
0.0918117
0.0935348
0.0952534
0.096965
0.0986666
0.100356
0.10203
0.103688
0.105329
0.10695
0.108553
0.110137
0.111703
0.113251
0.114782
0.116297
0.117798
0.119285
0.120759
0.12222
0.123671
0.125111
0.126541
0.127962
0.129376
0.130782
0.132183
0.133579
0.134971
0.136359
0.137743
0.139124
0.140502
0.141876
0.143247
0.144615
0.145978
0.147338
0.148695
0.15005
0.151401
0.152751
0.154098
0.155446
0.156793
0.158144
0.1595
0.160866
0.162245
0.163645
0.165075
0.166545
0.168071
0.169673
0.171382
0.173238
0.175303
0.177667
0.180466
0.183899
0.188269
0.194034
0.201145
0.205999
0.209495
0.212373
0.215134
0.21816
0.221809
0.226468
0.232555
0.245137
0.278825
0.508732
0.558734
0.562399
0.540531
0.336619
0.339176
0.345364
0.33195
0.316447
0.290156
0.263536
0.231657
0.228163
0.224077
0.217943
0.211553
0.205723
0.200712
0.196642
0.193761
0.193192
0.000710019
0.000880255
0.00117846
0.00163772
0.00228597
0.00312986
0.00416122
0.00536405
0.00672144
0.0082165
0.00983376
0.0115587
0.0133771
0.015275
0.0172389
0.0192553
0.0213115
0.0233951
0.0254948
0.0276
0.0297012
0.0317897
0.0338589
0.0359027
0.0379168
0.0398988
0.0418466
0.0437603
0.0456401
0.0474879
0.0493055
0.0510946
0.052857
0.0545941
0.0563077
0.057999
0.0596692
0.0613212
0.0629573
0.0645804
0.0661942
0.0678015
0.0694058
0.0710101
0.0726177
0.0742312
0.0758533
0.0774859
0.0791308
0.0807888
0.0824603
0.0841454
0.0858432
0.0875521
0.0892703
0.0909953
0.0927241
0.0944538
0.0961806
0.0979013
0.0996126
0.101311
0.102994
0.10466
0.106306
0.107931
0.109536
0.111121
0.112685
0.114231
0.115758
0.117269
0.118765
0.120247
0.121715
0.123171
0.124615
0.126049
0.127472
0.128887
0.130294
0.131695
0.13309
0.134481
0.135869
0.137255
0.138638
0.14002
0.141401
0.142781
0.144159
0.145536
0.14691
0.148284
0.149658
0.151032
0.152407
0.153783
0.155162
0.156545
0.157935
0.159334
0.160745
0.162175
0.163629
0.165117
0.166649
0.168242
0.169916
0.1717
0.173637
0.175788
0.178243
0.181141
0.184693
0.189234
0.195341
0.20417
0.21618
0.221106
0.224132
0.226424
0.228543
0.230804
0.233436
0.236692
0.240864
0.254952
0.298735
0.412133
0.544925
0.561745
0.562252
0.548373
0.544197
0.541322
0.532627
0.526529
0.346047
0.329175
0.270465
0.244899
0.225736
0.219957
0.213996
0.20813
0.202782
0.198246
0.194875
0.193854
0.00147959
0.0017231
0.0021154
0.00267448
0.00341266
0.00432908
0.00541565
0.00666021
0.00805031
0.00957288
0.0112149
0.0129635
0.0148054
0.0167271
0.0187151
0.0207562
0.0228371
0.0249454
0.0270689
0.0291967
0.0313187
0.0334255
0.0355095
0.0375641
0.0395843
0.0415672
0.043511
0.0454159
0.0472837
0.0491159
0.0509158
0.0526855
0.0544272
0.0561423
0.0578319
0.0594972
0.0611395
0.062761
0.0643644
0.0659531
0.0675306
0.0691005
0.070667
0.0722338
0.0738048
0.0753834
0.0769725
0.0785753
0.0801937
0.0818291
0.0834824
0.0851537
0.0868422
0.0885465
0.090264
0.0919922
0.0937274
0.0954659
0.0972036
0.0989362
0.10066
0.102371
0.104065
0.105741
0.107395
0.109026
0.110634
0.112218
0.11378
0.115321
0.116843
0.118349
0.119838
0.121314
0.122776
0.124224
0.125661
0.127087
0.128502
0.129908
0.131307
0.132699
0.134086
0.135471
0.136853
0.138235
0.139617
0.140999
0.142382
0.143766
0.145152
0.146538
0.147924
0.149312
0.150703
0.152098
0.153497
0.154902
0.156315
0.157736
0.15917
0.160621
0.162092
0.16359
0.165125
0.166707
0.168352
0.170078
0.171915
0.173902
0.176097
0.178583
0.181485
0.184993
0.189399
0.19518
0.203245
0.215811
0.234319
0.238106
0.240872
0.24256
0.243925
0.245072
0.246015
0.247133
0.248624
0.268661
0.337777
0.470546
0.55292
0.562075
0.562484
0.562108
0.561849
0.56157
0.56103
0.560829
0.529554
0.523954
0.466133
0.251234
0.226087
0.22075
0.215236
0.209601
0.204223
0.199474
0.1958
0.194463
0.00251959
0.00281941
0.00327926
0.00390684
0.00470657
0.00567454
0.00680381
0.0080846
0.00950687
0.0110597
0.0127314
0.0145098
0.0163823
0.0183353
0.0203556
0.0224293
0.0245434
0.0266848
0.0288409
0.0309999
0.033151
0.0352837
0.0373893
0.0394605
0.0414911
0.0434774
0.0454178
0.0473127
0.0491649
0.0509778
0.0527557
0.0545023
0.0562199
0.0579094
0.0595722
0.061208
0.062818
0.0644039
0.0659683
0.0675147
0.0690475
0.0705713
0.0720907
0.0736107
0.0751357
0.0766704
0.0782182
0.0797828
0.0813673
0.0829738
0.0846041
0.086258
0.087935
0.0896335
0.0913506
0.0930828
0.0948262
0.096576
0.0983279
0.100077
0.101817
0.103545
0.105255
0.106944
0.108608
0.110246
0.111857
0.113441
0.115
0.116536
0.118052
0.11955
0.121032
0.122499
0.123953
0.125393
0.126821
0.128237
0.129641
0.131036
0.132423
0.133805
0.135182
0.136556
0.137931
0.139307
0.140685
0.142066
0.14345
0.144838
0.146231
0.147627
0.149026
0.150429
0.151837
0.153254
0.154679
0.156114
0.157562
0.159025
0.160506
0.162011
0.163546
0.165119
0.166741
0.168425
0.17019
0.172063
0.17408
0.176293
0.178775
0.181636
0.185034
0.189204
0.194504
0.201518
0.211418
0.227203
0.248408
0.281286
0.307499
0.335782
0.383296
0.450823
0.470771
0.422688
0.316059
0.323797
0.414571
0.546293
0.561538
0.56246
0.562499
0.56249
0.562479
0.562465
0.562444
0.562438
0.560922
0.560452
0.551711
0.232006
0.226005
0.221181
0.215781
0.210474
0.205209
0.2004
0.196562
0.195023
0.00376087
0.00410191
0.00460945
0.00528593
0.00613146
0.00714117
0.00830888
0.00962642
0.0110848
0.0126743
0.0143835
0.0162006
0.0181132
0.0201076
0.0221704
0.0242877
0.0264459
0.0286316
0.0308319
0.0330338
0.0352258
0.037396
0.0395341
0.0416309
0.0436788
0.0456728
0.0476104
0.0494936
0.0513261
0.0531148
0.054866
0.0565846
0.0582742
0.0599355
0.0615682
0.0631716
0.0647448
0.0662887
0.067806
0.0693004
0.0707776
0.0722435
0.0737041
0.0751652
0.0766324
0.078111
0.0796061
0.0811222
0.0826634
0.084233
0.0858333
0.0874651
0.0891273
0.0908181
0.0925344
0.094272
0.0960264
0.0977916
0.0995622
0.101332
0.103095
0.104844
0.106576
0.108283
0.10997
0.111626
0.113247
0.11483
0.116383
0.117911
0.119417
0.120905
0.122377
0.123834
0.125279
0.126709
0.128125
0.129529
0.13092
0.132301
0.133673
0.135039
0.136401
0.137762
0.139124
0.14049
0.141861
0.143239
0.144622
0.146013
0.147411
0.148817
0.150229
0.151646
0.153073
0.154512
0.155964
0.157432
0.158917
0.160424
0.161956
0.163521
0.165124
0.166777
0.168491
0.170285
0.172183
0.174217
0.176433
0.178895
0.181697
0.184967
0.188894
0.193747
0.199931
0.20811
0.219713
0.238454
0.259193
0.331391
0.455248
0.557315
0.562429
0.56183
0.551416
0.545894
0.555419
0.508734
0.537891
0.5603
0.562388
0.562496
0.5625
0.5625
0.562499
0.562499
0.562498
0.562498
0.562458
0.562455
0.472156
0.231358
0.226056
0.221526
0.216275
0.211062
0.205914
0.201114
0.197201
0.195546
0.00514062
0.00551291
0.00605704
0.00677308
0.00765868
0.00870888
0.00991785
0.011278
0.0127808
0.0144168
0.0161747
0.0180425
0.0200076
0.0220562
0.0241747
0.0263493
0.0285661
0.0308113
0.0330715
0.0353329
0.0375827
0.0398074
0.0419946
0.044132
0.0462093
0.0482191
0.0501575
0.0520268
0.053834
0.0555897
0.0573054
0.0589897
0.0606467
0.0622771
0.063878
0.0654457
0.0669773
0.0684716
0.0699313
0.0713611
0.0727682
0.0741607
0.0755466
0.076933
0.0783266
0.0797336
0.0811605
0.0826134
0.0840983
0.0856198
0.0871811
0.0887837
0.0904268
0.0921081
0.0938239
0.0955684
0.0973366
0.0991214
0.100916
0.102714
0.104507
0.106288
0.108049
0.109801
0.111522
0.113205
0.114844
0.116434
0.11798
0.119497
0.12099
0.122464
0.123923
0.125368
0.1268
0.128218
0.12962
0.131008
0.132382
0.133743
0.135094
0.136437
0.137778
0.139119
0.140463
0.141814
0.143174
0.144544
0.145925
0.147316
0.148719
0.150132
0.151557
0.152988
0.154433
0.155894
0.157374
0.158875
0.1604
0.161954
0.16354
0.165168
0.166844
0.168583
0.170399
0.172315
0.174359
0.176573
0.179011
0.181751
0.184899
0.188602
0.193067
0.198586
0.205597
0.214841
0.228092
0.249874
0.267351
0.403037
0.557502
0.562433
0.562499
0.562499
0.562357
0.562079
0.562154
0.558807
0.560638
0.562368
0.562494
0.5625
0.5625
0.5625
0.5625
0.5625
0.5625
0.5625
0.562499
0.556661
0.322212
0.231466
0.226259
0.221831
0.216724
0.211573
0.206455
0.201688
0.197752
0.196041
0.00661098
0.00700926
0.00758583
0.00833939
0.00926674
0.0103626
0.0116211
0.0130348
0.0145948
0.0162913
0.0181128
0.0200467
0.0220802
0.0241994
0.0263906
0.0286401
0.0309341
0.0332588
0.0356006
0.0379453
0.0402781
0.0425839
0.0448467
0.0470502
0.049179
0.0512201
0.0531665
0.0550192
0.0567906
0.0584998
0.0601669
0.0618061
0.0634247
0.0650215
0.0665899
0.0681202
0.0696046
0.0710398
0.0724278
0.0737749
0.0750913
0.0763886
0.0776775
0.0789674
0.0802654
0.0815792
0.0829166
0.0842861
0.085696
0.0871535
0.0886633
0.0902272
0.0918449
0.0935134
0.0952279
0.0969814
0.0987674
0.100578
0.102404
0.104239
0.106072
0.107896
0.109724
0.111532
0.113304
0.115029
0.116693
0.118292
0.119828
0.121328
0.122801
0.124256
0.125699
0.12713
0.128549
0.129953
0.13134
0.132709
0.134061
0.135396
0.136719
0.138033
0.139343
0.140655
0.141973
0.143303
0.144646
0.146005
0.147379
0.148769
0.150174
0.151594
0.15303
0.154482
0.155944
0.157428
0.158936
0.160472
0.162038
0.16364
0.165285
0.166981
0.168739
0.170574
0.172506
0.174561
0.176773
0.17919
0.181876
0.184916
0.188427
0.192566
0.197544
0.203666
0.211394
0.221565
0.236482
0.262133
0.275557
0.484816
0.558891
0.562409
0.562498
0.5625
0.562498
0.562492
0.562489
0.562368
0.562433
0.562495
0.5625
0.5625
0.5625
0.5625
0.5625
0.5625
0.5625
0.56249
0.561872
0.525889
0.288059
0.231658
0.226488
0.222099
0.217093
0.212023
0.206953
0.202187
0.198246
0.19652
0.00813475
0.00855753
0.00916753
0.00996267
0.010939
0.0120912
0.013413
0.0148963
0.0165314
0.0183073
0.0202117
0.0222315
0.0243532
0.0265635
0.0288489
0.031196
0.0335919
0.0360236
0.0384774
0.0409394
0.0433937
0.0458227
0.0482061
0.0505213
0.0527851
0.0549411
0.0569138
0.0587484
0.0604651
0.062098
0.0636866
0.0652577
0.0668233
0.0683801
0.0699133
0.0714028
0.0728311
0.0741897
0.07548
0.0767112
0.0778994
0.079063
0.0802172
0.081374
0.0825413
0.0837271
0.0849412
0.086195
0.0875006
0.0888686
0.0903066
0.0918175
0.0934001
0.0950503
0.0967616
0.0985261
0.100334
0.102178
0.104046
0.10593
0.107818
0.109722
0.111632
0.113526
0.115387
0.11719
0.118909
0.120526
0.122044
0.123515
0.124957
0.126385
0.127805
0.129218
0.130622
0.13201
0.133379
0.134725
0.136048
0.137349
0.138632
0.139902
0.141167
0.142436
0.143716
0.145013
0.14633
0.147669
0.149031
0.150414
0.151818
0.153243
0.154687
0.156153
0.157631
0.159137
0.160675
0.162249
0.163862
0.165521
0.167234
0.169012
0.170867
0.172818
0.174888
0.177105
0.179511
0.182157
0.185111
0.188463
0.192333
0.196874
0.202301
0.208913
0.217188
0.228052
0.244395
0.273471
0.352733
0.508396
0.560777
0.562465
0.562499
0.5625
0.5625
0.5625
0.5625
0.562497
0.562498
0.5625
0.5625
0.5625
0.5625
0.5625
0.5625
0.5625
0.5625
0.562475
0.561402
0.52676
0.265851
0.23169
0.226642
0.22231
0.217403
0.212414
0.207399
0.202661
0.198727
0.196992
0.00968301
0.0101312
0.0107794
0.0116246
0.0126628
0.013888
0.0152929
0.0168682
0.0186022
0.0204821
0.0224943
0.0246249
0.0268602
0.0291872
0.0315937
0.034068
0.0365988
0.0391751
0.0417852
0.0444163
0.0470526
0.0496749
0.0523268
0.0551282
0.0579664
0.0607119
0.063144
0.0649318
0.0664893
0.0678937
0.0692446
0.0706067
0.0720107
0.0734525
0.0748986
0.0762996
0.0776111
0.0788123
0.0799021
0.0808966
0.0818257
0.0827264
0.0836264
0.0845414
0.0854789
0.0864452
0.0874511
0.0885121
0.0896464
0.0908694
0.0921914
0.0936164
0.0951416
0.0967607
0.0984627
0.100237
0.102072
0.103955
0.105876
0.107824
0.109789
0.111806
0.113845
0.115892
0.117925
0.119901
0.121754
0.123421
0.124909
0.126328
0.127713
0.129091
0.130473
0.13186
0.133244
0.134613
0.135958
0.137272
0.138553
0.139803
0.141024
0.142224
0.143416
0.144612
0.145826
0.147067
0.14834
0.149646
0.150983
0.152351
0.153747
0.15517
0.156619
0.158096
0.159598
0.161124
0.162692
0.164306
0.165973
0.167698
0.169494
0.17137
0.173344
0.175435
0.177668
0.180075
0.182698
0.185589
0.188816
0.192466
0.196656
0.201533
0.207301
0.214254
0.222877
0.234163
0.251534
0.281883
0.407854
0.524367
0.561315
0.562476
0.5625
0.5625
0.5625
0.5625
0.5625
0.5625
0.5625
0.5625
0.5625
0.5625
0.5625
0.5625
0.5625
0.5625
0.562499
0.562474
0.561733
0.54608
0.237834
0.231313
0.22668
0.222473
0.217682
0.212774
0.207819
0.203119
0.199205
0.197465
0.0112315
0.0117082
0.0124024
0.0133108
0.0144293
0.0157511
0.0172669
0.0189647
0.0208296
0.0228458
0.0249973
0.0272699
0.0296502
0.0321264
0.0346889
0.0373291
0.0400399
0.0428147
0.0456462
0.0485268
0.0514452
0.054522
0.0580031
0.0617965
0.0659677
0.0702525
0.0743077
0.0763928
0.0775842
0.0783745
0.0790864
0.0798965
0.0808982
0.082095
0.0834058
0.084692
0.0858171
0.0867246
0.0874072
0.0878933
0.0882501
0.0885739
0.0889298
0.0893432
0.0898166
0.0903485
0.0909477
0.0916358
0.0924421
0.093392
0.0944992
0.0957652
0.0971817
0.0987354
0.100409
0.102184
0.104044
0.105975
0.107962
0.109995
0.112088
0.114263
0.116509
0.118827
0.121204
0.12358
0.125789
0.127586
0.129018
0.130327
0.131591
0.132865
0.134174
0.135519
0.136878
0.138223
0.139535
0.140802
0.142019
0.143184
0.1443
0.145376
0.146432
0.147494
0.148586
0.149722
0.15091
0.152151
0.153441
0.154774
0.156147
0.157556
0.158999
0.160479
0.161997
0.163537
0.165134
0.166794
0.168524
0.170331
0.172226
0.174223
0.17634
0.178597
0.181019
0.183637
0.186488
0.189619
0.193094
0.196994
0.201425
0.206529
0.2125
0.219627
0.228402
0.239876
0.257982
0.288091
0.461823
0.551677
0.562159
0.562493
0.5625
0.5625
0.5625
0.5625
0.5625
0.5625
0.5625
0.5625
0.5625
0.5625
0.5625
0.5625
0.5625
0.5625
0.562498
0.562427
0.560151
0.508992
0.237019
0.231203
0.226796
0.222666
0.21797
0.213134
0.208235
0.203573
0.199683
0.197939
0.0127608
0.0132726
0.0140241
0.0150117
0.0162297
0.017678
0.0193516
0.0212145
0.0232533
0.0254476
0.0277791
0.0302326
0.0327965
0.0354629
0.0382265
0.0410851
0.0440391
0.0470916
0.0502465
0.0535097
0.0569722
0.0612605
0.0664024
0.0725091
0.0798587
0.0872175
0.0952868
0.0980991
0.0984822
0.0975865
0.096633
0.0960672
0.0961575
0.0969542
0.0984045
0.100665
0.101622
0.102034
0.101887
0.101227
0.100213
0.0991657
0.0982795
0.0975983
0.09709
0.0967162
0.0964695
0.0963814
0.0965091
0.0968999
0.0975727
0.0985204
0.0997182
0.101134
0.102734
0.104485
0.106362
0.108342
0.110408
0.112551
0.114823
0.117232
0.119806
0.122587
0.125618
0.12886
0.131941
0.133972
0.135289
0.13634
0.137334
0.138382
0.139547
0.140832
0.14218
0.143514
0.144794
0.146002
0.147129
0.148165
0.149106
0.14996
0.150762
0.151569
0.152427
0.153365
0.154395
0.155515
0.156714
0.15798
0.159302
0.160675
0.162095
0.163562
0.165082
0.166654
0.168271
0.169973
0.171767
0.173661
0.175668
0.177802
0.18008
0.18252
0.185146
0.187978
0.191043
0.194378
0.198035
0.202089
0.206642
0.211833
0.217853
0.224991
0.233753
0.245252
0.26402
0.292732
0.500219
0.560883
0.562467
0.562499
0.5625
0.5625
0.5625
0.5625
0.5625
0.5625
0.5625
0.5625
0.5625
0.5625
0.5625
0.5625
0.5625
0.5625
0.562498
0.562372
0.554869
0.365521
0.237105
0.231356
0.227026
0.222928
0.218299
0.21352
0.208666
0.204036
0.200164
0.198416
0.0142579
0.0148185
0.015649
0.0167458
0.0181016
0.0197094
0.0215629
0.0236135
0.025842
0.0283551
0.0309295
0.0336133
0.0364094
0.0393179
0.0423429
0.0454934
0.0487843
0.0522371
0.0558818
0.0597605
0.0648627
0.0715986
0.0805044
0.0904487
0.102648
0.111859
0.123537
0.125676
0.125382
0.121824
0.118567
0.116201
0.115264
0.116044
0.119883
0.125634
0.128053
0.128219
0.127084
0.124582
0.120897
0.117156
0.113972
0.111386
0.109206
0.107259
0.105477
0.103917
0.102728
0.102033
0.10187
0.102214
0.103
0.104153
0.105602
0.107288
0.109163
0.111192
0.113353
0.115636
0.118128
0.120854
0.123892
0.127363
0.131449
0.136226
0.140976
0.143084
0.144162
0.144643
0.145112
0.145749
0.146692
0.147959
0.14967
0.151228
0.152518
0.153685
0.154718
0.155592
0.156279
0.156767
0.157102
0.157439
0.157868
0.158451
0.159206
0.160122
0.161171
0.162325
0.163561
0.164866
0.166232
0.167662
0.169163
0.170743
0.172367
0.174102
0.175958
0.177944
0.180069
0.182346
0.184791
0.18742
0.190244
0.193271
0.196505
0.199963
0.203691
0.20776
0.212281
0.217401
0.223315
0.23032
0.238945
0.25041
0.270151
0.296592
0.509801
0.560836
0.562465
0.562499
0.5625
0.5625
0.5625
0.5625
0.5625
0.5625
0.5625
0.5625
0.5625
0.5625
0.5625
0.5625
0.5625
0.562496
0.562443
0.559049
0.49364
0.300423
0.23732
0.231619
0.227338
0.223262
0.218685
0.213949
0.209127
0.204515
0.200651
0.198894
0.0157086
0.0163354
0.0172735
0.0185208
0.0200686
0.0219016
0.0239996
0.0263037
0.0287922
0.0315291
0.0343622
0.037561
0.0406543
0.0438744
0.0472438
0.0507937
0.0545669
0.0586242
0.0630549
0.0686274
0.0767301
0.0888479
0.104033
0.116227
0.131256
0.136149
0.14064
0.159967
0.164628
0.13194
0.12997
0.128302
0.127878
0.129707
0.13708
0.147568
0.150605
0.152609
0.152231
0.149704
0.143978
0.137756
0.132713
0.128748
0.125283
0.121865
0.118303
0.114709
0.111508
0.109088
0.107597
0.106991
0.107139
0.10789
0.109111
0.110693
0.112555
0.114639
0.116915
0.119376
0.122127
0.125221
0.128796
0.133085
0.138513
0.145217
0.151581
0.153182
0.153948
0.153502
0.153328
0.153476
0.154236
0.155745
0.159105
0.161252
0.16279
0.163997
0.16502
0.165806
0.166264
0.166281
0.165845
0.165418
0.165157
0.165189
0.165546
0.166186
0.167042
0.168055
0.169179
0.170387
0.171665
0.173021
0.17447
0.176029
0.177707
0.17946
0.181368
0.183433
0.185662
0.188065
0.190656
0.193446
0.196438
0.199617
0.202941
0.206408
0.210057
0.213967
0.218286
0.223183
0.228857
0.235604
0.243989
0.255443
0.277171
0.302286
0.510859
0.560657
0.562458
0.562499
0.5625
0.5625
0.5625
0.5625
0.5625
0.5625
0.5625
0.5625
0.5625
0.5625
0.5625
0.5625
0.562401
0.561616
0.550359
0.489887
0.385871
0.269259
0.237401
0.231886
0.227701
0.22367
0.219144
0.21444
0.209633
0.20502
0.201145
0.199374
0.0171018
0.0178173
0.0189014
0.0203584
0.0221784
0.0243314
0.0267686
0.0294167
0.0322474
0.0352848
0.0384404
0.0419133
0.045636
0.0493969
0.0532483
0.0573715
0.0618751
0.0669087
0.0726972
0.082376
0.0963021
0.116705
0.136381
0.143842
0.150707
0.269227
0.499109
0.543988
0.509399
0.465612
0.185651
0.139176
0.138165
0.141316
0.154566
0.161983
0.199903
0.325671
0.353916
0.207713
0.153861
0.148912
0.145397
0.142786
0.140222
0.137034
0.132791
0.127483
0.121985
0.117436
0.114296
0.112531
0.111917
0.112206
0.11318
0.114669
0.116545
0.118719
0.121143
0.123816
0.126824
0.130249
0.134283
0.139289
0.146029
0.15404
0.158756
0.171026
0.178651
0.160273
0.159879
0.159699
0.160468
0.163229
0.170385
0.174149
0.175987
0.177315
0.179506
0.180407
0.180796
0.180266
0.178228
0.176355
0.174849
0.173958
0.173729
0.174014
0.174649
0.175507
0.176503
0.177584
0.178727
0.179944
0.181288
0.18279
0.184459
0.186234
0.188164
0.190261
0.192529
0.19498
0.197634
0.200513
0.203628
0.206948
0.210299
0.213663
0.217079
0.220638
0.2246
0.229164
0.234502
0.240866
0.248862
0.260179
0.284499
0.449207
0.553542
0.56227
0.562495
0.5625
0.5625
0.5625
0.5625
0.5625
0.5625
0.5625
0.5625
0.5625
0.5625
0.5625
0.5625
0.5625
0.562408
0.560812
0.537451
0.457038
0.347838
0.242927
0.237105
0.232129
0.228128
0.224172
0.219697
0.215014
0.210179
0.205559
0.20166
0.199859
0.01843
0.0192618
0.0205452
0.0223012
0.0245203
0.0271413
0.0300606
0.0331795
0.0364586
0.0399002
0.0434757
0.0473159
0.0514012
0.0560529
0.0608545
0.0658779
0.0715812
0.0783334
0.0887593
0.107832
0.127822
0.152213
0.160743
0.239251
0.486323
0.55179
0.561248
0.562222
0.561738
0.560954
0.539237
0.204515
0.152582
0.157148
0.174519
0.378479
0.556517
0.559334
0.558684
0.53389
0.192482
0.155951
0.154465
0.153945
0.153205
0.151452
0.147783
0.141243
0.13284
0.125834
0.121003
0.118139
0.11685
0.116768
0.117593
0.119088
0.121072
0.123415
0.126036
0.128934
0.132135
0.135735
0.139957
0.145341
0.153156
0.161666
0.221421
0.533554
0.548295
0.505453
0.213014
0.167414
0.167432
0.17101
0.179096
0.23765
0.494747
0.468494
0.546799
0.560779
0.512053
0.23201
0.184693
0.183345
0.181955
0.181053
0.180944
0.181388
0.182162
0.183123
0.184173
0.185247
0.186306
0.187377
0.188608
0.190054
0.191714
0.193566
0.195519
0.197626
0.199893
0.202349
0.205036
0.208019
0.211381
0.215126
0.218556
0.221766
0.224808
0.227784
0.231286
0.235492
0.24045
0.246275
0.253649
0.264445
0.289817
0.488452
0.558085
0.562383
0.562498
0.5625
0.5625
0.5625
0.5625
0.5625
0.5625
0.5625
0.5625
0.5625
0.5625
0.5625
0.5625
0.5625
0.562451
0.561441
0.535328
0.46777
0.357765
0.24255
0.237224
0.232566
0.228702
0.224821
0.220316
0.21566
0.210826
0.206172
0.202217
0.200352
0.0196892
0.0206698
0.0222266
0.0244241