/*--------------------------------*- C++ -*----------------------------------*\
| =========                 |                                                 |
| \\      /  F ield         | OpenFOAM: The Open Source CFD Toolbox           |
|  \\    /   O peration     | Version:  2.1.0                                 |
|   \\  /    A nd           | Web:      www.OpenFOAM.org                      |
|    \\/     M anipulation  |                                                 |
\*---------------------------------------------------------------------------*/
FoamFile
{
    version     2.0;
    format      ascii;
    class       volScalarField;
    location    "64240";
    object      kr_w;
}
// * * * * * * * * * * * * * * * * * * * * * * * * * * * * * * * * * * * * * //

dimensions      [0 0 0 0 0 0 0];

internalField   nonuniform List<scalar> 
15000
(
0.5625
0.562484
0.562464
0.562457
0.562356
0.561478
0.557938
0.549883
0.537332
0.521828
0.505058
0.488163
0.471753
0.456119
0.441371
0.427528
0.414569
0.402451
0.391119
0.38052
0.3706
0.361306
0.352586
0.344396
0.336689
0.329425
0.322566
0.316076
0.309924
0.304081
0.298519
0.293214
0.288143
0.283289
0.278629
0.27415
0.269835
0.26567
0.261642
0.257741
0.253954
0.250273
0.246688
0.24319
0.239772
0.236429
0.233156
0.229948
0.226803
0.223718
0.220691
0.217722
0.214809
0.211952
0.209152
0.206407
0.203718
0.201087
0.198513
0.195996
0.193537
0.191135
0.188789
0.1865
0.184265
0.182084
0.179954
0.177873
0.175841
0.173854
0.171912
0.170011
0.168151
0.166329
0.164544
0.162793
0.161077
0.159392
0.157738
0.156113
0.154517
0.152948
0.151405
0.149888
0.148396
0.146928
0.145485
0.144066
0.14267
0.141299
0.139952
0.138629
0.137331
0.136058
0.13481
0.133589
0.132394
0.131227
0.130088
0.128978
0.127897
0.126846
0.125826
0.124837
0.12388
0.122956
0.122065
0.121208
0.120384
0.119593
0.118835
0.118109
0.117415
0.116751
0.116115
0.115507
0.114924
0.114366
0.11383
0.113315
0.112814
0.112324
0.111833
0.111332
0.110807
0.110245
0.109642
0.109014
0.108419
0.107926
0.107549
0.107271
0.107067
0.106863
0.106657
0.106447
0.106231
0.106007
0.105773
0.105527
0.105266
0.104982
0.104668
0.104312
0.103896
0.103395
0.102765
0.101921
0.100655
0.0981484
0.562484
0.562454
0.562438
0.562438
0.562251
0.560919
0.556399
0.54722
0.533894
0.518075
0.501306
0.484571
0.468385
0.452988
0.438467
0.424831
0.412056
0.400099
0.388911
0.378438
0.368629
0.359434
0.350804
0.342693
0.33506
0.327862
0.321065
0.314633
0.308533
0.30274
0.297225
0.291965
0.286937
0.282121
0.2775
0.273057
0.268776
0.264644
0.260649
0.256778
0.253022
0.249369
0.24581
0.242338
0.238945
0.235624
0.232372
0.229185
0.226059
0.222992
0.219982
0.217028
0.214129
0.211285
0.208495
0.20576
0.203081
0.200458
0.197892
0.195382
0.192929
0.190534
0.188195
0.185911
0.183682
0.181506
0.179382
0.177306
0.17528
0.173298
0.171361
0.169465
0.16761
0.165794
0.164014
0.162269
0.160558
0.158879
0.15723
0.15561
0.154018
0.152454
0.150915
0.149402
0.147914
0.146449
0.145009
0.143591
0.142198
0.140827
0.139481
0.138158
0.136859
0.135584
0.134334
0.133109
0.13191
0.130737
0.129591
0.128472
0.12738
0.126316
0.125281
0.124274
0.123296
0.122346
0.121425
0.120532
0.119667
0.118827
0.118013
0.117221
0.116449
0.115695
0.114957
0.114232
0.11352
0.11282
0.112131
0.111453
0.110777
0.110089
0.109364
0.108568
0.107657
0.106583
0.105314
0.103886
0.102507
0.101507
0.100856
0.100472
0.100279
0.100158
0.100103
0.100101
0.100123
0.100156
0.100208
0.100294
0.100421
0.100578
0.100744
0.100892
0.100988
0.100995
0.100863
0.100505
0.0997137
0.0976719
0.562464
0.562437
0.562423
0.562386
0.56189
0.559548
0.553401
0.542734
0.52858
0.512552
0.495943
0.47953
0.463712
0.448673
0.434479
0.421136
0.408618
0.396887
0.385897
0.375599
0.365945
0.356889
0.348384
0.340387
0.332857
0.325756
0.319047
0.312698
0.306677
0.300957
0.295511
0.290315
0.285349
0.280593
0.276028
0.271639
0.26741
0.263329
0.259382
0.255558
0.251845
0.248234
0.244715
0.24128
0.237922
0.234635
0.231414
0.228255
0.225156
0.222113
0.219125
0.216191
0.21331
0.210482
0.207706
0.204984
0.202317
0.199704
0.197147
0.194646
0.192201
0.189813
0.187481
0.185205
0.182983
0.180814
0.178697
0.176629
0.17461
0.172636
0.170706
0.168819
0.166972
0.165164
0.163392
0.161655
0.159951
0.158279
0.156638
0.155025
0.15344
0.151883
0.15035
0.148843
0.147359
0.145899
0.144462
0.143048
0.141657
0.140288
0.138942
0.137619
0.136319
0.135043
0.133789
0.132559
0.131354
0.130173
0.129016
0.127884
0.126777
0.125696
0.124639
0.123608
0.122601
0.121617
0.120656
0.119716
0.118796
0.117891
0.117
0.116119
0.115241
0.114363
0.113479
0.112584
0.111675
0.110753
0.109821
0.108886
0.107939
0.106956
0.10589
0.104669
0.103201
0.101376
0.0990982
0.0963736
0.0937421
0.0922579
0.0914279
0.0909968
0.0908286
0.0908496
0.0910629
0.0914434
0.0918743
0.0923187
0.0928107
0.0934035
0.0941241
0.0949484
0.0958297
0.0967073
0.097519
0.0982078
0.0987136
0.0989472
0.0987037
0.0971674
0.562456
0.562435
0.562387
0.562113
0.560746
0.556612
0.548364
0.536196
0.521416
0.505409
0.489148
0.473207
0.457879
0.443298
0.429517
0.416537
0.404338
0.392885
0.382139
0.372057
0.362596
0.353712
0.345363
0.337509
0.330111
0.323132
0.316537
0.310295
0.304374
0.298748
0.293392
0.288282
0.283398
0.278719
0.274228
0.26991
0.26575
0.261734
0.25785
0.254086
0.250432
0.246876
0.243409
0.240024
0.236712
0.233469
0.230288
0.227166
0.224101
0.221089
0.218129
0.215219
0.21236
0.209551
0.206793
0.204086
0.201432
0.198831
0.196284
0.193792
0.191357
0.188977
0.186654
0.184385
0.182172
0.180012
0.177905
0.175847
0.173837
0.171873
0.169953
0.168075
0.166239
0.16444
0.162679
0.160952
0.159259
0.157597
0.155965
0.154361
0.152785
0.151235
0.14971
0.14821
0.146732
0.145278
0.143845
0.142435
0.141046
0.139679
0.138334
0.137011
0.13571
0.13443
0.133172
0.131936
0.130722
0.12953
0.128361
0.127214
0.126089
0.124985
0.123903
0.122841
0.121799
0.120774
0.119764
0.118767
0.117779
0.116795
0.11581
0.114815
0.113802
0.112761
0.111678
0.110541
0.109339
0.10807
0.106748
0.105418
0.104091
0.102731
0.101258
0.0995586
0.0974806
0.0948373
0.0914445
0.0871144
0.0830451
0.081753
0.0810908
0.08075
0.080614
0.0807557
0.0812355
0.0820886
0.0829617
0.0837785
0.0846462
0.0857058
0.0870392
0.0885949
0.0902917
0.0920235
0.0936801
0.0951683
0.0964087
0.0973056
0.0976552
0.0966452
0.562366
0.562265
0.561925
0.560798
0.557644
0.55111
0.540818
0.527558
0.512556
0.496853
0.481129
0.465789
0.451044
0.436997
0.423688
0.411124
0.399288
0.388154
0.377688
0.367855
0.358615
0.349932
0.341766
0.33408
0.326838
0.320004
0.313546
0.307432
0.301633
0.296123
0.290876
0.28587
0.281084
0.2765
0.272101
0.26787
0.263794
0.25986
0.256055
0.252367
0.248784
0.245296
0.241895
0.23857
0.235316
0.232126
0.228996
0.22592
0.222896
0.219921
0.216995
0.214115
0.211281
0.208495
0.205756
0.203067
0.200427
0.197838
0.195303
0.192821
0.190395
0.188025
0.185711
0.183452
0.181249
0.179099
0.177001
0.174954
0.172956
0.171004
0.169097
0.167233
0.165409
0.163623
0.161873
0.160158
0.158477
0.156827
0.155207
0.153614
0.152049
0.150509
0.148994
0.147502
0.146032
0.144584
0.143157
0.141752
0.140366
0.139002
0.137658
0.136334
0.135031
0.133748
0.132484
0.13124
0.130017
0.128813
0.127628
0.126463
0.125317
0.124188
0.123077
0.12198
0.120897
0.119824
0.118758
0.117694
0.116627
0.11555
0.114452
0.113322
0.112143
0.110893
0.109546
0.10807
0.106431
0.104608
0.102647
0.100749
0.0989674
0.0972334
0.0954185
0.0933581
0.09085
0.0876503
0.083501
0.0777438
0.0731206
0.0729484
0.0724934
0.0722908
0.0721632
0.0722737
0.0727887
0.0740769
0.0752459
0.0761462
0.0770611
0.0782827
0.0800224
0.08217
0.0846055
0.0871903
0.0897302
0.0920637
0.0940755
0.0956584
0.0966087
0.0961183
0.561593
0.561073
0.559772
0.556892
0.551344
0.542551
0.530848
0.517128
0.502331
0.487178
0.472132
0.457478
0.443375
0.429905
0.417107
0.40499
0.393547
0.382757
0.372597
0.363035
0.35404
0.345579
0.337616
0.330119
0.323052
0.316385
0.310083
0.304118
0.29846
0.293085
0.287966
0.283081
0.278412
0.273939
0.269647
0.265519
0.261544
0.257706
0.253993
0.250394
0.246897
0.243492
0.240168
0.236917
0.233732
0.230607
0.227537
0.224516
0.221541
0.218611
0.215724
0.212879
0.210076
0.207315
0.204599
0.201928
0.199303
0.196728
0.194204
0.191733
0.189317
0.186955
0.18465
0.182402
0.180209
0.178071
0.175986
0.173952
0.171967
0.170029
0.168137
0.166287
0.164478
0.162707
0.160973
0.159273
0.157606
0.15597
0.154364
0.152785
0.151232
0.149705
0.1482
0.146719
0.145258
0.143819
0.142399
0.140998
0.139617
0.138255
0.136912
0.135588
0.134283
0.132996
0.131726
0.130474
0.129239
0.128021
0.12682
0.125635
0.124465
0.123309
0.122164
0.121028
0.1199
0.118773
0.117644
0.116507
0.115351
0.114168
0.112942
0.111653
0.110273
0.108764
0.107074
0.105132
0.102854
0.100155
0.0971349
0.0945421
0.0923828
0.0904562
0.0885438
0.0864329
0.0839004
0.0806982
0.0765733
0.0701341
0.0676827
0.0628214
0.0586114
0.0546991
0.0528893
0.0549472
0.0602263
0.0711461
0.0718878
0.0721897
0.0725297
0.0732295
0.0747597
0.0769485
0.0796333
0.0828078
0.086091
0.0891797
0.0918947
0.094109
0.0956142
0.0956021
0.558468
0.557016
0.554128
0.549148
0.541519
0.531283
0.518992
0.505385
0.491116
0.476675
0.462387
0.448459
0.435021
0.422147
0.409875
0.39822
0.387183
0.376752
0.366911
0.357635
0.348899
0.340674
0.33293
0.325638
0.318764
0.312278
0.306152
0.300353
0.294856
0.289631
0.284658
0.279912
0.275376
0.27103
0.26686
0.262851
0.258989
0.255262
0.251658
0.248163
0.244766
0.241457
0.238224
0.235061
0.231958
0.228909
0.225909
0.222953
0.220037
0.21716
0.214319
0.211513
0.208744
0.206013
0.20332
0.200669
0.198061
0.195499
0.192987
0.190525
0.188118
0.185766
0.18347
0.181232
0.17905
0.176924
0.174852
0.172833
0.170864
0.168944
0.167069
0.165237
0.163445
0.161692
0.159974
0.158291
0.156641
0.155021
0.153431
0.151868
0.150331
0.148818
0.147328
0.145858
0.144409
0.142979
0.141568
0.140174
0.138798
0.137439
0.136097
0.134772
0.133465
0.132173
0.130897
0.129636
0.12839
0.127158
0.125939
0.124732
0.123536
0.122349
0.121169
0.119991
0.118813
0.117629
0.116432
0.115213
0.113961
0.112661
0.11129
0.109818
0.108202
0.10638
0.104261
0.101716
0.098559
0.0945335
0.0897755
0.0866543
0.0844674
0.0827046
0.0810451
0.0792603
0.0771547
0.0745392
0.0712415
0.0648347
0.0501251
0.00391815
0.000232867
6.16687e-06
0.00143975
0.0314195
0.0307445
0.0291569
0.0326813
0.0371589
0.0458758
0.0563907
0.07172
0.0736074
0.0758715
0.079387
0.0832034
0.086829
0.0900594
0.0927627
0.0947206
0.0951116
0.551284
0.548709
0.544297
0.537736
0.528923
0.518153
0.505939
0.492827
0.479268
0.465612
0.4521
0.438899
0.42612
0.413834
0.402082
0.390888
0.380258
0.370189
0.36067
0.351685
0.343214
0.335234
0.327718
0.32064
0.313972
0.307683
0.301746
0.296131
0.29081
0.285756
0.280945
0.276355
0.271966
0.267762
0.263728
0.259851
0.256119
0.252517
0.249035
0.245659
0.242378
0.239179
0.236054
0.232992
0.229985
0.227026
0.224109
0.221229
0.218382
0.215565
0.212777
0.210017
0.207287
0.204587
0.201921
0.19929
0.196699
0.19415
0.191648
0.189196
0.186796
0.184452
0.182165
0.179936
0.177765
0.175652
0.173596
0.171594
0.169643
0.167741
0.165886
0.164074
0.162302
0.160568
0.158871
0.157208
0.155577
0.153976
0.152405
0.150861
0.149342
0.147846
0.146372
0.144918
0.143482
0.142064
0.140662
0.139277
0.137907
0.136552
0.135212
0.133888
0.132579
0.131283
0.13
0.128729
0.127471
0.126223
0.124985
0.123755
0.122532
0.121313
0.120095
0.118873
0.117643
0.116397
0.115127
0.113822
0.112465
0.111036
0.109504
0.107826
0.105941
0.103756
0.101135
0.0978745
0.0936422
0.0878191
0.0804237
0.0775564
0.0758404
0.0745638
0.0734004
0.0721767
0.0707752
0.0690756
0.0669505
0.0601998
0.042864
0.0155499
0.00113547
4.62493e-05
1.51371e-05
0.000902666
0.0011853
0.00138433
0.002009
0.00246846
0.0289857
0.0334499
0.0534716
0.064951
0.0749447
0.078217
0.0817254
0.0853153
0.088712
0.0916885
0.093959
0.0946568
0.539964
0.536546
0.531194
0.523871
0.514706
0.504041
0.492289
0.479855
0.467071
0.4542
0.44144
0.428934
0.416783
0.405059
0.393807
0.383056
0.372821
0.363104
0.353903
0.345206
0.336998
0.329262
0.321977
0.315119
0.308664
0.302584
0.296851
0.291435
0.286307
0.28144
0.276807
0.272387
0.268161
0.264113
0.260229
0.256499
0.252909
0.249448
0.246104
0.242863
0.239714
0.236643
0.233641
0.230698
0.227803
0.224949
0.222129
0.219337
0.21657
0.213823
0.211097
0.20839
0.205703
0.203038
0.2004
0.197791
0.195215
0.192679
0.190186
0.18774
0.185347
0.183008
0.180727
0.178506
0.176346
0.174246
0.172206
0.170223
0.168294
0.166414
0.164582
0.162793
0.161044
0.159333
0.157657
0.156016
0.154407
0.152829
0.151279
0.149756
0.148258
0.146783
0.145328
0.143892
0.142473
0.141069
0.13968
0.138305
0.136942
0.135593
0.134256
0.132931
0.131621
0.130322
0.129032
0.127752
0.126481
0.125217
0.12396
0.122706
0.121455
0.120202
0.118944
0.117675
0.11639
0.115079
0.113732
0.112334
0.110865
0.109295
0.107587
0.105683
0.103499
0.100917
0.0977576
0.0937517
0.088413
0.0806426
0.0703107
0.0683484
0.0669466
0.0661036
0.0654287
0.0648668
0.0644074
0.0638672
0.0631527
0.0542187
0.0311122
0.00766074
0.000603324
2.60116e-05
9.6711e-07
2.39619e-05
3.98798e-05
5.69767e-05
9.02373e-05
0.000102651
0.00223831
0.00266799
0.00815697
0.0619198
0.07475
0.0777604
0.0809841
0.0844023
0.0877847
0.0908736
0.0933307
0.0942402
0.525865
0.522028
0.516323
0.508863
0.499855
0.489617
0.478483
0.466768
0.454736
0.442602
0.430536
0.418669
0.407097
0.395894
0.385108
0.374774
0.36491
0.355527
0.346626
0.338203
0.330248
0.322749
0.31569
0.309052
0.302813
0.296948
0.29143
0.286228
0.281312
0.27665
0.272215
0.267981
0.263932
0.260054
0.256333
0.252761
0.249328
0.246023
0.242833
0.239745
0.236746
0.233823
0.230964
0.228157
0.225393
0.222661
0.219955
0.217268
0.214594
0.21193
0.209274
0.206627
0.203989
0.201363
0.198754
0.196167
0.193607
0.191081
0.188594
0.186152
0.183761
0.181424
0.179147
0.176932
0.174782
0.172696
0.170672
0.16871
0.166804
0.16495
0.163144
0.161381
0.159658
0.157973
0.156322
0.154706
0.153122
0.151568
0.150044
0.148547
0.147074
0.145623
0.144191
0.142777
0.141377
0.139991
0.138616
0.137253
0.1359
0.134557
0.133224
0.131901
0.130588
0.129286
0.12799
0.126701
0.125417
0.124137
0.122859
0.121581
0.1203
0.119012
0.117712
0.116395
0.115052
0.113673
0.112244
0.110747
0.109156
0.107436
0.105537
0.103387
0.100887
0.0978958
0.0942117
0.0895324
0.0832864
0.074134
0.0632558
0.0491748
0.0399582
0.0316428
0.0207091
0.00999416
0.00763583
0.013892
0.0372768
0.0349795
0.0151568
0.00104248
5.89672e-05
2.46749e-06
8.04225e-08
6.38683e-07
1.28763e-06
2.1595e-06
3.42859e-06
3.77614e-06
9.6883e-05
0.000125917
0.000682057
0.0715338
0.0747954
0.0775134
0.0806601
0.0838644
0.0871558
0.0902636
0.092816
0.0938581
0.510566
0.506616
0.500921
0.493645
0.485014
0.475309
0.464807
0.453767
0.442413
0.430933
0.419482
0.408182
0.397127
0.386392
0.376026
0.36607
0.356546
0.347468
0.338842
0.330671
0.322948
0.315669
0.308821
0.302392
0.296366
0.290719
0.285427
0.280456
0.275771
0.271334
0.267115
0.263087
0.25923
0.255532
0.251986
0.248585
0.245322
0.242187
0.23917
0.236257
0.233432
0.23068
0.227987
0.22534
0.222728
0.220141
0.217569
0.215004
0.212441
0.209875
0.207302
0.204723
0.202141
0.199558
0.196981
0.194416
0.19187
0.189351
0.186866
0.184423
0.18203
0.179691
0.177412
0.175199
0.173045
0.17096
0.168949
0.167011
0.165134
0.163311
0.161537
0.159805
0.158112
0.156456
0.154834
0.153246
0.15169
0.150166
0.148671
0.147203
0.14576
0.144339
0.142936
0.141548
0.140174
0.138809
0.137454
0.136106
0.134765
0.133431
0.132104
0.130784
0.12947
0.128166
0.126865
0.125567
0.12427
0.122974
0.121675
0.120371
0.119059
0.117734
0.116391
0.115022
0.113619
0.112168
0.110652
0.109049
0.107328
0.105446
0.103342
0.100936
0.0981154
0.0947303
0.090572
0.0853282
0.0783578
0.0681708
0.0582904
0.0328351
0.00944403
0.000322013
4.33035e-06
4.0999e-05
0.000701367
0.00106952
0.000442397
0.00391795
0.00162668
0.000135357
6.82654e-06
2.57424e-07
7.84075e-09
1.79253e-08
4.39929e-08
8.29809e-08
1.17622e-07
1.11626e-07
2.59459e-06
2.77279e-06
0.0074833
0.0718797
0.0747672
0.0773163
0.0803675
0.083504
0.0867081
0.0897961
0.092387
0.0935031
0.495179
0.49128
0.485754
0.478776
0.470565
0.46137
0.451429
0.440971
0.430194
0.419267
0.408338
0.397522
0.386912
0.376583
0.366585
0.35696
0.347732
0.338921
0.330535
0.322581
0.315058
0.307968
0.301305
0.295064
0.289235
0.283802
0.278742
0.274017
0.269587
0.265405
0.261429
0.257626
0.253977
0.250473
0.247111
0.243891
0.240811
0.237866
0.235044
0.23233
0.229707
0.227154
0.224657
0.222198
0.219767
0.217351
0.21494
0.212524
0.210094
0.207643
0.205169
0.202671
0.200152
0.197617
0.195074
0.192531
0.189996
0.187481
0.184994
0.182543
0.180139
0.177789
0.1755
0.17326
0.17109
0.169
0.166993
0.165073
0.163229
0.161443
0.159707
0.158013
0.156356
0.154734
0.153145
0.151589
0.150067
0.148577
0.147117
0.145687
0.144282
0.142899
0.141532
0.140179
0.138836
0.1375
0.136169
0.134841
0.133516
0.132194
0.130875
0.12956
0.128247
0.126942
0.125638
0.124333
0.123024
0.121711
0.120391
0.119061
0.117718
0.116355
0.114967
0.113544
0.112076
0.110547
0.108938
0.10722
0.105358
0.103302
0.100986
0.0983224
0.0951981
0.0914621
0.0869091
0.0812197
0.0736462
0.0625595
0.0547667
0.0170736
0.00031022
4.07159e-06
5.4429e-08
8.36329e-08
8.75085e-06
2.57526e-05
2.11721e-05
0.000228306
0.00011443
8.08382e-06
3.97068e-07
1.54475e-08
5.13391e-10
5.27788e-10
1.72713e-09
3.58232e-09
3.68391e-09
2.77585e-09
4.69329e-08
0.000363394
0.0354406
0.0718217
0.0746549
0.0771423
0.0801026
0.0831913
0.0863661
0.0894215
0.0920179
0.0931675
0.480328
0.476542
0.471224
0.464542
0.456702
0.44793
0.438442
0.428446
0.418124
0.407639
0.397129
0.386708
0.376465
0.366472
0.356782
0.347434
0.338453
0.32986
0.321666
0.31388
0.306509
0.299558
0.293033
0.286938
0.281275
0.276038
0.271208
0.266751
0.262611
0.258722
0.255024
0.251477
0.248055
0.244755
0.241584
0.238553
0.235671
0.232936
0.230337
0.227857
0.225473
0.223159
0.220895
0.218662
0.216448
0.21424
0.212024
0.209789
0.207521
0.205212
0.202857
0.200456
0.198011
0.195531
0.193024
0.190502
0.187977
0.185459
0.182962
0.180496
0.178071
0.175699
0.173356
0.171078
0.168878
0.166769
0.164762
0.162859
0.161056
0.159317
0.157629
0.15598
0.154365
0.152781
0.151228
0.149708
0.148223
0.146772
0.145355
0.143969
0.14261
0.141274
0.139955
0.138646
0.137343
0.136043
0.134742
0.133439
0.132135
0.130829
0.129521
0.128213
0.126904
0.125594
0.124288
0.122977
0.121658
0.12033
0.11899
0.117634
0.116257
0.114854
0.113417
0.111935
0.110396
0.10878
0.107066
0.105222
0.103209
0.100973
0.0984465
0.0955442
0.0921567
0.0881422
0.0833009
0.077294
0.0691837
0.056998
0.0514112
0.00615143
0.000222997
5.55564e-06
9.43896e-08
1.56997e-09
1.0659e-07
4.89543e-07
6.67136e-07
8.07231e-06
4.12439e-06
3.00356e-07
1.49528e-08
6.08127e-10
2.24446e-11
1.47562e-11
8.71619e-11
5.2585e-10
1.17637e-08
6.00873e-07
3.84214e-05
0.00251776
0.0466382
0.0717193
0.0745284
0.0769897
0.0798856
0.0829172
0.0860527
0.0890973
0.0916882
0.0928448
0.466327
0.462661
0.457522
0.451073
0.443511
0.435045
0.425878
0.416207
0.406212
0.396049
0.385851
0.37573
0.365772
0.356043
0.346594
0.337461
0.328667
0.320232
0.312167
0.304483
0.297191
0.290303
0.283837
0.27781
0.272142
0.266937
0.262327
0.258165
0.254373
0.250854
0.247509
0.244273
0.241118
0.238044
0.235078
0.232252
0.22959
0.227102
0.224776
0.222589
0.220508
0.218498
0.21653
0.214583
0.212643
0.210697
0.208731
0.206727
0.204668
0.20254
0.200335
0.198052
0.195698
0.193281
0.190816
0.188315
0.185796
0.18327
0.180753
0.178258
0.175798
0.173359
0.170953
0.168605
0.166334
0.164168
0.162132
0.160244
0.158493
0.156817
0.155193
0.153604
0.152041
0.150502
0.14899
0.147511
0.146068
0.144664
0.143298
0.141968
0.140669
0.139395
0.138138
0.13689
0.135642
0.13439
0.13313
0.131861
0.130584
0.129299
0.128008
0.126711
0.12541
0.124103
0.122799
0.121483
0.120155
0.11881
0.117447
0.116061
0.114646
0.113196
0.1117
0.110149
0.108525
0.106811
0.10498
0.103
0.100831
0.0984209
0.0957056
0.0926061
0.0890233
0.0848281
0.0798293
0.0736685
0.065198
0.0522466
0.0273482
0.00394711
0.00010587
2.1367e-06
3.37129e-08
4.34051e-10
1.16625e-09
7.36808e-09
1.45718e-08
1.88624e-07
9.42986e-08
7.45954e-09
3.8438e-10
1.59355e-11
5.85119e-13
1.89135e-13
3.10706e-12
3.60915e-10
2.99093e-08
1.51218e-06
6.73453e-05
0.00245076
0.0554004
0.071702
0.074443
0.0768696
0.0797031
0.0826802
0.0857728
0.08879
0.0913683
0.092527
0.45331
0.44974
0.444722
0.438417
0.431013
0.422714
0.413722
0.404232
0.394424
0.384457
0.374461
0.364542
0.354783
0.345243
0.335965
0.326979
0.318303
0.30995
0.30193
0.294253
0.286932
0.279986
0.273273
0.266493
0.259925
0.253835
0.248643
0.244938
0.241785
0.238998
0.236365
0.233756
0.231113
0.228447
0.225819
0.223317
0.22101
0.218929
0.217065
0.215383
0.213829
0.212338
0.210862
0.209376
0.207868
0.20633
0.204745
0.203091
0.201343
0.199481
0.197493
0.195379
0.193149
0.190817
0.188405
0.18593
0.183414
0.180875
0.178328
0.17579
0.173275
0.170735
0.168213
0.165724
0.163295
0.160971
0.158826
0.156924
0.155247
0.153667
0.15214
0.15064
0.14915
0.14767
0.146209
0.14478
0.143391
0.142046
0.140748
0.139494
0.13828
0.137097
0.135934
0.134775
0.13361
0.13243
0.13123
0.130011
0.128774
0.127521
0.126255
0.124978
0.12369
0.122392
0.121084
0.119769
0.118434
0.117074
0.115686
0.114266
0.112806
0.111299
0.109734
0.1081
0.10638
0.104555
0.102599
0.100484
0.0981708
0.0956129
0.092753
0.0895226
0.0858344
0.081571
0.0765482
0.0703923
0.0617794
0.0489466
0.0162554
0.00263577
7.26667e-05
1.48712e-06
2.42119e-08
3.28218e-10
1.48642e-11
8.86605e-11
2.31337e-10
3.10923e-09
1.51657e-09
1.30619e-10
7.00798e-12
2.92817e-13
9.35403e-15
3.17516e-18
6.6253e-14
6.7803e-11
5.44754e-08
1.60475e-06
4.69623e-05
0.0010569
0.0684877
0.0719036
0.074422
0.0767772
0.0795398
0.082462
0.08551
0.0884945
0.0910517
0.09221
0.441317
0.437807
0.432837
0.426568
0.419187
0.410901
0.401921
0.392451
0.382683
0.37278
0.362873
0.35306
0.343415
0.333986
0.324804
0.315888
0.307245
0.298879
0.290793
0.282987
0.275471
0.267934
0.259842
0.251497
0.242834
0.23443
0.226888
0.223152
0.221057
0.219684
0.218458
0.217074
0.21538
0.213382
0.211222
0.209133
0.207328
0.205888
0.204814
0.204054
0.203498
0.202996
0.202445
0.201808
0.201083
0.200271
0.199362
0.198325
0.197119
0.19571
0.194084
0.192246
0.190217
0.188022
0.185693
0.183262
0.180755
0.178199
0.175613
0.173013
0.170385
0.167702
0.164982
0.162229
0.15946
0.156744
0.154265
0.15228
0.150718
0.149306
0.147955
0.146608
0.145237
0.143842
0.142447
0.141081
0.139762
0.1385
0.137298
0.136159
0.135076
0.134041
0.133033
0.132026
0.131
0.12994
0.128841
0.127704
0.126532
0.125332
0.124109
0.122865
0.121603
0.120324
0.119025
0.117721
0.116383
0.115008
0.113592
0.112131
0.110618
0.109044
0.1074
0.105672
0.103847
0.101908
0.0998346
0.0976022
0.0951792
0.0925261
0.0895931
0.0863198
0.0826279
0.0784075
0.0734769
0.0674483
0.05883
0.0466268
0.0086556
0.000684269
2.08604e-05
4.34837e-07
7.21163e-09
1.01428e-10
1.35265e-12
8.83045e-13
2.78827e-12
3.80956e-11
1.81743e-11
1.68606e-12
9.46421e-14
2.68936e-15
0
0
3.17516e-18
1.17563e-11
1.08565e-07
4.48533e-06
0.000144596
0.00389573
0.0689069
0.0719628
0.074358
0.0766674
0.079371
0.0822441
0.0852501
0.0882017
0.0907357
0.0918929
0.430332
0.426826
0.421819
0.41548
0.408008
0.399574
0.390373
0.380742
0.370854
0.360878
0.350945
0.341144
0.331531
0.322136
0.312972
0.30404
0.29533
0.286826
0.278513
0.270372
0.262193
0.252648
0.241959
0.230186
0.217138
0.205112
0.192938
0.188917
0.188377
0.189642
0.191
0.191811
0.191682
0.190541
0.188486
0.185339
0.184027
0.183465
0.183665
0.184568
0.185964
0.187419
0.188662
0.189625
0.190347
0.190881
0.191234
0.19136
0.191177
0.190618
0.189661
0.188323
0.186649
0.184695
0.182516
0.180167
0.177691
0.175124
0.172491
0.169809
0.167018
0.164118
0.161082
0.157872
0.154455
0.15089
0.147584
0.145447
0.14408
0.142999
0.141983
0.14092
0.13975
0.13847
0.137141
0.135838
0.1346
0.133442
0.132371
0.131395
0.130514
0.129719
0.128978
0.128236
0.127452
0.126601
0.125672
0.12467
0.123607
0.122493
0.12134
0.120155
0.118941
0.117699
0.116426
0.115123
0.113798
0.112419
0.110983
0.109485
0.107919
0.106277
0.104551
0.102731
0.100806
0.0987663
0.0966025
0.0942982
0.0918288
0.0891607
0.0862483
0.0830333
0.0794398
0.0753597
0.0706082
0.0647786
0.0561823
0.0449535
0.00467331
9.92834e-05
2.04261e-06
3.87141e-08
6.37382e-10
9.21716e-12
1.20907e-13
7.12824e-15
2.59887e-14
3.62156e-13
1.69097e-13
1.5879e-14
3.17516e-18
0
0
0
0
3.17138e-09
1.34477e-07
7.85115e-06
0.000477608
0.0244084
0.0688622
0.0718806
0.0742315
0.0765193
0.0791789
0.0820117
0.0849818
0.0879049
0.0904186
0.0915754
0.420295
0.4167
0.411525
0.404949
0.397192
0.388476
0.379007
0.369171
0.359152
0.348587
0.338471
0.328591
0.318935
0.3095
0.30027
0.291219
0.282309
0.273495
0.264721
0.255917
0.24508
0.231884
0.216044
0.200119
0.182633
0.17067
0.156792
0.154391
0.154718
0.158746
0.162536
0.165353
0.166483
0.165541
0.160992
0.154437
0.151768
0.151588
0.152832
0.155614
0.159814
0.164208
0.168057
0.171261
0.174016
0.176522
0.178854
0.180926
0.182524
0.183467
0.183688
0.18322
0.182157
0.180611
0.178689
0.176484
0.174071
0.171504
0.168818
0.166033
0.163054
0.159864
0.156391
0.152525
0.148107
0.143115
0.138328
0.136257
0.135209
0.134745
0.134294
0.133684
0.132785
0.131588
0.129989
0.128549
0.127369
0.126311
0.125383
0.124602
0.123991
0.12356
0.123264
0.122968
0.122591
0.122081
0.121423
0.120631
0.11973
0.118746
0.1177
0.116606
0.115472
0.114295
0.113073
0.111801
0.110506
0.109139
0.107694
0.106169
0.10456
0.10286
0.101064
0.0991652
0.0971623
0.0950572
0.092855
0.0905509
0.0881261
0.0855467
0.0827606
0.0797044
0.0763002
0.072437
0.0679208
0.0623068
0.0536012
0.0436003
0.0038262
0.000102208
2.12881e-06
3.81435e-08
5.93902e-10
8.15656e-12
1.01104e-13
3.17516e-18
0
6.92186e-16
3.17516e-18
0
0
0
0
0
0
2.71332e-07
3.4953e-06
0.000213145
0.00528646
0.0422913
0.0687517
0.0717401
0.07406
0.0763303
0.0789538
0.0817535
0.0846955
0.0875979
0.090099
0.0912576
0.411161
0.407377
0.401883
0.394871
0.386594
0.377338
0.367387
0.357155
0.346822
0.336208
0.325944
0.315129
0.305353
0.295802
0.286414
0.277117
0.267827
0.258443
0.24883
0.237562
0.222556
0.202572
0.180771
0.165321
0.148312
0.143195
0.13866
0.120765
0.116805
0.147585
0.149689
0.151497
0.15196
0.149973
0.142241
0.131957
0.129123
0.127287
0.127631
0.129957
0.135388
0.141554
0.146768
0.151012
0.154829
0.158699
0.162847
0.167157
0.171108
0.174168
0.176085
0.17687
0.176679
0.175706
0.174138
0.172131
0.169805
0.167243
0.164497
0.161585
0.158398
0.154898
0.15096
0.146377
0.140789
0.134193
0.128225
0.126766
0.126074
0.126477
0.126634
0.126501
0.125815
0.124465
0.121511
0.119661
0.118351
0.117334
0.116478
0.115825
0.115445
0.115431
0.115792
0.116146
0.116364
0.116337
0.11604
0.11551
0.114804
0.113974
0.11306
0.112086
0.111063
0.109989
0.108851
0.10764
0.10635
0.105018
0.103587
0.102058
0.100431
0.0987046
0.0968738
0.0949371
0.0928997
0.0907791
0.0886094
0.0863962
0.0841211
0.081743
0.0791866
0.0763747
0.0732289
0.0696396
0.0653971
0.0599761
0.0507723
0.0416662
0.00373587
0.00011329
2.54377e-06
4.68383e-08
7.34031e-10
1.00532e-11
1.23555e-13
3.17516e-18
0
0
0
0
0
0
0
0
6.02174e-06
5.41437e-05
0.000770824
0.00564825
0.0202079
0.0539699
0.0687103
0.0715974
0.0738603
0.0761003
0.0786875
0.0814593
0.0843824
0.0872758
0.0897761
0.09094
0.402874
0.398786
0.392794
0.385093
0.375988
0.365871
0.355171
0.344334
0.333539
0.322746
0.312285
0.301547
0.290822
0.280707
0.271008
0.261278
0.251329
0.240947
0.229838
0.212916
0.191474
0.164748
0.142956
0.13552
0.129028
0.0539835
0.00477493
0.00119964
0.00386073
0.00821648
0.100439
0.140122
0.141141
0.137992
0.125519
0.119037
0.0905909
0.0344402
0.0270659
0.0855758
0.126153
0.130695
0.134021
0.136548
0.139077
0.142288
0.146686
0.152393
0.15856
0.163875
0.167661
0.169834
0.170597
0.170238
0.169031
0.167206
0.164939
0.162356
0.15953
0.156477
0.153119
0.14939
0.145124
0.140008
0.133416
0.125992
0.121815
0.111574
0.105631
0.120501
0.120841
0.120997
0.120333
0.11798
0.112088
0.109102
0.107673
0.10665
0.104983
0.104306
0.104014
0.104411
0.105952
0.107388
0.108556
0.109252
0.109432
0.109208
0.108712
0.108044
0.107274
0.106444
0.105574
0.104653
0.103646
0.102532
0.101306
0.100018
0.0986337
0.0971504
0.0955695
0.0938873
0.0920966
0.0901899
0.0881668
0.086056
0.0839717
0.0819253
0.0798938
0.0778246
0.075578
0.0730621
0.0702147
0.0669498
0.0630394
0.057854
0.0479572
0.0101991
0.000563012
1.40837e-05
2.85806e-07
4.88341e-09
7.21897e-11
9.45421e-13
1.05288e-14
0
0
0
0
0
0
0
0
0
5.62975e-06
0.000103694
0.00165817
0.00922596
0.02854
0.0659216
0.0688625
0.0714682
0.073627
0.0758179
0.0783669
0.0811166
0.0840457
0.0869334
0.08944
0.0906197
0.395371
0.390853
0.384133
0.375392
0.365015
0.353599
0.341811
0.330146
0.31877
0.307679
0.296953
0.28622
0.275582
0.264321
0.253526
0.243015
0.231917
0.219755
0.202709
0.17578
0.152022
0.127647
0.120097
0.0677652
0.00600013
0.000676911
7.67972e-05
1.69965e-05
4.66774e-05
9.49074e-05
0.00153097
0.0875982
0.127311
0.123223
0.108813
0.0216697
0.000372488
0.00019536
0.00023595
0.00191608
0.095602
0.124282
0.125609
0.126077
0.126745
0.128343
0.131753
0.138063
0.146634
0.154215
0.159692
0.16304
0.164574
0.164672
0.163689
0.161923
0.159611
0.15693
0.153991
0.150809
0.147379
0.14362
0.13934
0.134074
0.12679
0.119307
0.077376
0.00194078
0.000907834
0.00420403
0.0823166
0.114499
0.114484
0.111587
0.105294
0.0685821
0.00518136
0.00788971
0.00100832
0.000105738
0.00363474
0.0715313
0.101135
0.102122
0.10315
0.103822
0.103903
0.103572
0.102996
0.102286
0.101515
0.100732
0.0999658
0.0991961
0.0983183
0.0972959
0.0961353
0.0948542
0.093521
0.0921023
0.090597
0.0889921
0.0872657
0.0853846
0.083309
0.0810496
0.0790292
0.0771789
0.0754621
0.0738151
0.071918
0.0696978
0.0671588
0.0642815
0.0607979
0.0559997
0.0459985
0.00578894
0.000273512
7.16152e-06
1.43307e-07
2.31311e-09
3.15092e-11
3.74974e-13
3.00053e-15
0
0
0
0
0
0
0
0
0
2.98496e-06
6.49369e-05
0.00181122
0.00797114
0.026162
0.0661083
0.0688011
0.071236
0.0733135
0.0754547
0.0780099
0.0807321
0.0836484
0.0865451
0.0890779
0.0902951
0.388582
0.383496
0.375754
0.36545
0.3531
0.339709
0.326391
0.313673
0.301634
0.290187
0.279214
0.268426
0.257698
0.246512
0.233807
0.221305
0.208082
0.192457
0.158627
0.125073
0.110339
0.10286
0.00999059
0.00113644
0.000137262