/*--------------------------------*- C++ -*----------------------------------*\
| =========                 |                                                 |
| \\      /  F ield         | OpenFOAM: The Open Source CFD Toolbox           |
|  \\    /   O peration     | Version:  2.1.0                                 |
|   \\  /    A nd           | Web:      www.OpenFOAM.org                      |
|    \\/     M anipulation  |                                                 |
\*---------------------------------------------------------------------------*/
FoamFile
{
    version     2.0;
    format      ascii;
    class       surfaceScalarField;
    location    "64240";
    object      phi_w;
}
// * * * * * * * * * * * * * * * * * * * * * * * * * * * * * * * * * * * * * //

dimensions      [1 -2 -2 0 0 0 0];

internalField   nonuniform List<scalar> 
29750
(
18.5946
18.6157
11.2304
7.36471
7.76306
3.46777
5.86257
1.90061
4.69211
1.17151
3.91285
0.786568
3.3747
0.562856
2.99962
0.424218
2.73541
0.333801
2.54464
0.271414
2.40261
0.22576
2.29428
0.190625
2.21061
0.162535
2.1459
0.13945
2.0964
0.120114
2.05943
0.103697
2.03297
0.0896287
2.0154
0.0775158
2.00539
0.0670654
2.00181
0.05806
2.00363
0.050333
2.00994
0.0437537
2.0199
0.0382108
2.03275
0.0336088
2.0478
0.0298599
2.0644
0.0268793
2.082
0.0245861
2.10009
0.0229003
2.11824
0.021741
2.13606
0.0210391
2.15326
0.020728
2.16955
0.0207497
2.18471
0.021058
2.19854
0.0216116
2.21089
0.0223809
2.22161
0.0233317
2.23059
0.0244324
2.23776
0.0256491
2.24307
0.0269429
2.24653
0.0282705
2.24818
0.0295821
2.24812
0.0308284
2.24648
0.0319594
2.24348
0.0329292
2.23933
0.0336914
2.23432
0.0342037
2.22873
0.0344341
2.2229
0.0343594
2.21716
0.0339618
2.21185
0.0332345
2.2073
0.0321847
2.20383
0.0308321
2.20172
0.0292043
2.20122
0.0273387
2.20252
0.0252838
2.20578
0.023095
2.21108
0.0208287
2.21844
0.018545
2.22782
0.0163059
2.23913
0.0141677
2.25222
0.0121843
2.26689
0.0104039
2.28292
0.00885931
2.30005
0.00757522
2.318
0.00656629
2.33652
0.00583381
2.35534
0.00536445
2.37423
0.00513388
2.39298
0.00511363
2.41144
0.00526838
2.42945
0.00556105
2.44693
0.00595786
2.4638
0.00642836
2.48002
0.00694412
2.49557
0.00747994
2.51047
0.00801482
2.52472
0.00852941
2.53838
0.00900364
2.55151
0.00941511
2.56419
0.00974011
2.57656
0.00995239
2.58874
0.0100237
2.60091
0.00992704
2.61326
0.00963697
2.62602
0.00912948
2.63944
0.008383
2.65375
0.00737889
2.66924
0.00610611
2.6862
0.00455126
2.70492
0.00270023
2.72571
0.000541137
2.74889
-0.0019392
2.7748
-0.00476038
2.80382
-0.00794637
2.83633
-0.0115286
2.87278
-0.015546
2.91365
-0.0200475
2.95948
-0.0250916
3.01089
-0.0307495
3.06859
-0.0371062
3.13337
-0.0442618
3.20615
-0.0523328
3.28799
-0.0614519
3.38007
-0.0717698
3.48378
-0.0834499
3.60065
-0.0966659
3.73239
-0.111594
3.88088
-0.128392
4.04811
-0.147179
4.23611
-0.167992
4.4468
-0.190733
4.68181
-0.215087
4.94213
-0.240438
5.22776
-0.265784
5.5373
-0.289716
5.86763
-0.310539
6.21407
-0.326672
6.57122
-0.337399
6.93485
-0.343908
7.30467
-0.350118
7.68686
-0.362492
8.09502
-0.388472
8.54929
-0.434573
9.07342
-0.504421
9.68922
-0.596048
10.4067
-0.697657
11.2089
-0.782261
12.0349
-0.805842
12.7771
-0.722005
13.3274
-0.530084
13.6707
-0.323323
13.8313
-0.140796
13.8324
0.0186814
13.6825
0.169541
13.3844
0.317753
12.96
0.444103
12.469
0.510594
11.9338
0.554825
11.3321
0.621397
10.6233
0.728391
9.78013
0.862723
8.80865
0.991041
7.73683
1.09137
6.60591
1.15045
5.45606
1.16935
4.31628
1.15927
3.20155
1.13417
2.11497
1.106
1.05121
1.08314
1.07058
7.34363
11.2726
7.3335
7.37563
6.19591
4.60574
5.13347
2.9631
4.30717
1.99975
3.68914
1.41556
3.23606
1.04728
2.90921
0.807077
2.67303
0.644217
2.49899
0.528371
2.36748
0.441768
2.26619
0.374201
2.18752
0.319712
2.12657
0.274684
2.07999
0.236813
2.04537
0.204565
2.02085
0.176872
2.00495
0.152981
1.99639
0.132339
1.99408
0.114534
1.99705
0.0992483
2.00439
0.086229
2.0153
0.0752649
2.029
0.0661716
2.04482
0.0587781
2.06211
0.0529189
2.08031
0.0484273
2.09893
0.0451455
2.11753
0.042913
2.13575
0.0415822
2.15328
0.0410248
2.16986
0.041123
2.18526
0.0417884
2.19931
0.0429402
2.21184
0.0445159
2.22271
0.0464567
2.23181
0.0487005
2.23906
0.0511801
2.2444
0.0538164
2.24784
0.056521
2.24943
0.0591975
2.24925
0.0617473
2.24745
0.0640669
2.24424
0.0660554
2.23984
0.0676225
2.23455
0.0686869
2.22866
0.0691772
2.2225
0.0690419
2.21643
0.06825
2.2108
0.0667911
2.20595
0.0646764
2.2022
0.0619419
2.19985
0.0586479
2.19916
0.0548736
2.20034
0.0507127
2.20352
0.0462751
2.2088
0.0416824
2.2162
0.037055
2.22568
0.0325173
2.23715
0.028189
2.25044
0.0241756
2.26535
0.020573
2.28164
0.0174578
2.29904
0.0148789
2.31727
0.0128624
2.33605
0.0114085
2.35511
0.0104926
2.37421
0.0100646
2.39314
0.0100607
2.41173
0.0104087
2.42985
0.0110322
2.4474
0.0118591
2.46431
0.0128254
2.48055
0.0138772
2.49611
0.0149684
2.51098
0.0160588
2.52519
0.01711
2.53879
0.018082
2.55183
0.0189299
2.56441
0.0196061
2.57663
0.0200585
2.58864
0.0202299
2.60062
0.0200643
2.61275
0.0195088
2.62528
0.0185144
2.63843
0.0170419
2.65248
0.0150542
2.66769
0.0125218
2.68435
0.00942332
2.70276
0.00573598
2.72323
0.0014344
2.74607
-0.00350733
2.77161
-0.00912584
2.80023
-0.0154685
2.83231
-0.0225967
2.86828
-0.0305842
2.9086
-0.0395283
2.95382
-0.0495446
3.00454
-0.0607748
3.06143
-0.0733871
3.1253
-0.0875802
3.19703
-0.103587
3.27767
-0.121675
3.36839
-0.142143
3.47057
-0.165326
3.58572
-0.191581
3.7156
-0.221273
3.8621
-0.254748
4.0273
-0.29228
4.21337
-0.334003
4.42245
-0.379793
4.65646
-0.429111
4.91678
-0.480807
5.20383
-0.532901
5.51647
-0.582448
5.8515
-0.625668
6.20334
-0.658632
6.56471
-0.678879
6.92864
-0.687956
7.2923
-0.693888
7.66088
-0.711157
8.04892
-0.756551
8.47944
-0.845062
8.9818
-0.986601
9.58761
-1.18145
10.3221
-1.41131
11.1854
-1.62397
12.1187
-1.71672
12.9691
-1.54915
13.5341
-1.07262
13.8532
-0.620705
13.9908
-0.257389
13.9832
0.0467738
13.8307
0.342631
13.5108
0.658371
13.0265
0.949137
12.5133
1.04451
12.0004
1.08834
11.4391
1.20338
10.7576
1.43043
9.90845
1.73241
8.90898
2.01094
7.79591
2.22476
6.6248
2.34172
5.44599
2.36816
4.29118
2.33394
3.17338
2.27168
2.0921
2.20686
1.03865
2.15606
2.12862
3.44666
7.82633
4.56361
6.25908
4.55326
4.61632
4.17013
3.34682
3.72298
2.45186
3.32086
1.83664
2.99585
1.41462
2.74635
1.12172
2.55718
0.912816
2.41238
0.758105
2.29991
0.638984
2.2117
0.54414
2.1425
0.466589
2.0887
0.401872
2.04774
0.347051
2.01767
0.300109
1.99696
0.25963
1.9843
0.224592
1.97858
0.194243
1.9788
0.168017
1.98403
0.145476
1.99343
0.126272
2.0062
0.110112
2.02161
0.0967338
2.03896
0.0858917
2.05762
0.0773427
2.07703
0.0708404
2.0967
0.0661379
2.1162
0.062997
2.1352
0.0611892
2.15338
0.0605124
2.17052
0.0607987
2.18641
0.0619073
2.20088
0.063733
2.21378
0.066186
2.22495
0.0691864
2.23429
0.072649
2.24169
0.0764741
2.24711
0.0805488
2.25052
0.0847393
2.25198
0.0888954
2.25157
0.0928573
2.24944
0.0964697
2.24581
0.0995792
2.24091
0.102041
2.23504
0.103726
2.22852
0.104531
2.22171
0.104372
2.21498
0.1032
2.20869
0.100996
2.20321
0.0977815
2.1989
0.0936102
2.19608
0.088572
2.195
0.0827892
2.1959
0.0764126
2.19893
0.0696103
2.20417
0.0625656
2.21166
0.0554709
2.22135
0.0485155
2.23313
0.0418863
2.24684
0.0357519
2.26223
0.0302549
2.27906
0.025516
2.29702
0.0216142
2.31582
0.0185929
2.33513
0.0164468
2.35468
0.0151327
2.37421
0.0145725
2.39349
0.0146588
2.41235
0.0152743
2.43068
0.0162978
2.44836
0.0176174
2.46536
0.019136
2.48164
0.020773
2.4972
0.0224624
2.51203
0.0241471
2.52617
0.0257739
2.53964
0.0272867
2.55251
0.0286211
2.56486
0.0297024
2.5768
0.0304505
2.58847
0.0307787
2.60006
0.0305984
2.61176
0.0298274
2.62381
0.0283918
2.63644
0.0262269
2.64995
0.0232821
2.66459
0.0195162
2.68066
0.0148975
2.69846
0.00939717
2.71828
0.00298369
2.74045
-0.00438409
2.76527
-0.0127547
2.79311
-0.0221927
2.82433
-0.0327871
2.85933
-0.0446482
2.89859
-0.0579155
2.94259
-0.0727608
2.99192
-0.0893925
3.04724
-0.10806
3.10929
-0.129058
3.17894
-0.152733
3.2572
-0.179484
3.34521
-0.209769
3.44431
-0.244096
3.55603
-0.283022
3.68212
-0.32713
3.82457
-0.377001
3.98558
-0.433142
4.16758
-0.495894
4.37313
-0.565266
4.60476
-0.640693
4.86469
-0.720703
5.15428
-0.802473
5.47325
-0.881399
5.81853
-0.950916
6.1831
-1.00314
6.55563
-1.03131
6.9227
-1.03487
7.27503
-1.02597
7.61549
-1.03127
7.96041
-1.08099
8.3379
-1.20185
8.78694
-1.41456
9.35775
-1.73051
10.1095
-2.14009
11.0926
-2.58213
12.2863
-2.88216
13.4456
-2.67807
13.986
-1.58666
14.2166
-0.82716
14.295
-0.313226
14.2791
0.0845179
14.1465
0.497581
13.8015
1.02609
13.1218
1.65194
12.5571
1.63229
12.1155
1.5528
11.6661
1.67544
11.0596
2.05959
10.187
2.62754
9.1228
3.0974
7.91287
3.45657
6.65124
3.62476
5.41177
3.62857
4.22892
3.53727
3.10855
3.41219
2.0413
3.29394
1.01122
3.20572
3.15925
1.8794
5.94705
2.92085
5.21772
3.28376
4.25398
3.27516
3.35865
3.10776
2.63219
2.89884
2.07815
2.70295
1.66676
2.53745
1.36173
2.40247
1.1316
2.29326
0.953339
2.20506
0.811417
2.13415
0.695651
2.07778
0.599319
2.03388
0.517892
2.0008
0.448238
1.97719
0.388149
1.96192
0.336028
1.95395
0.290704
1.95236
0.251309
1.95626
0.21718
1.96483
0.187804
1.97727
0.16277
1.99283
0.141726
2.01077
0.124355
2.03041
0.110347
2.05111
0.0993869
2.07233
0.0911507
2.09356
0.0852996
2.1144
0.0814991
2.13452
0.079438
2.15366
0.0788331
2.17163
0.0794593
2.18824
0.081138
2.20334
0.0837414
2.21678
0.0871672
2.22841
0.0913234
2.23811
0.0961153
2.24577
0.101418
2.2513
0.107078
2.25468
0.11291
2.25594
0.118709
2.25518
0.124255
2.25255
0.129326
2.24827
0.133706
2.24259
0.137196
2.23584
0.139617
2.22836
0.140821
2.22054
0.140692
2.21277
0.13916
2.20547
0.136197
2.19904
0.131828
2.19387
0.126128
2.19029
0.119224
2.18863
0.111287
2.1891
0.102523
2.19188
0.0931697
2.19708
0.0834825
2.20471
0.0737296
2.21472
0.0641758
2.227
0.0550759
2.24134
0.0466714
2.25749
0.0391648
2.27516
0.0327239
2.294
0.0274606
2.31367
0.0234335
2.33382
0.0206386
2.35412
0.0190062
2.37429
0.0184192
2.3941
0.0187185
2.41338
0.019726
2.43199
0.0212647
2.44988
0.0231745
2.467
0.0253231
2.48333
0.0276078
2.49888
0.0299498
2.51366
0.0322824
2.52768
0.0345442
2.54097
0.0366646
2.55359
0.0385604
2.56561
0.0401311
2.57713
0.0412638
2.58829
0.0418383
2.59929
0.0417302
2.61032
0.0408193
2.62164
0.0390046
2.6335
0.0362006
2.64618
0.0323401
2.65997
0.0273742
2.67516
0.0212659
2.69204
0.0139822
2.71092
0.00549098
2.73208
-0.00425072
2.75583
-0.0153032
2.78251
-0.0277498
2.81246
-0.0416978
2.84607
-0.0572917
2.88374
-0.0747095
2.92596
-0.0941729
2.97326
-0.115954
3.02624
-0.140379
3.08562
-0.167834
3.15219
-0.198776
3.22691
-0.233736
3.31088
-0.273323
3.40539
-0.318235
3.51192
-0.369244
3.63225
-0.42719
3.76842
-0.492943
3.92282
-0.567348
4.09821
-0.651113
4.2977
-0.744621
4.52475
-0.847623
4.78292
-0.958751
5.07536
-1.07478
5.40374
-1.18962
5.76631
-1.29326
6.15492
-1.37141
6.55207
-1.40795
6.9316
-1.39367
7.26973
-1.34314
7.56576
-1.30611
7.83956
-1.33332
8.12519
-1.46559
8.47099
-1.73776
8.94818
-2.1839
9.66743
-2.8334
10.7926
-3.6775
12.4904
-4.54262
14.537
-4.68388
14.7456
-1.76769
14.7305
-0.787154
14.6927
-0.251782
14.6921
0.108463
14.675
0.539106
14.4274
1.29918
13.1022
3.00381
12.4776
2.28296
12.2381
1.81775
12.0503
1.88855
11.6275
2.5077
10.6568
3.62371
9.48197
4.29741
8.08106
4.88185
6.65505
5.07414
5.32047
4.98549
4.10384
4.77534
2.99031
4.54643
1.95308
4.35134
0.964742
4.2138
4.14343
1.15008
4.79793
1.95711
4.41247
2.38843
3.82733
2.54871
3.21098
2.55371
2.6561
2.48745
2.19514
2.39792
1.82643
2.30732
1.53428
2.22421
1.30106
2.15134
1.11209
2.0893
0.956367
2.03782
0.826018
1.99635
0.715419
1.96422
0.620533
1.94071
0.538426
1.92507
0.466949
1.9166
0.404508
1.91456
0.349905
1.91823
0.302238
1.92688
0.260816
1.93979
0.225102
1.95623
0.194659
1.97545
0.169112
1.99676
0.14811
2.01945
0.131299
2.04288
0.118299
2.06648
0.1087
2.08976
0.102065
2.11234
0.0979537
2.13391
0.0959413
2.15429
0.0956642
2.17331
0.0968305
2.19084
0.0992325
2.20676
0.10273
2.22093
0.107234
2.23321
0.112664
2.24342
0.118922
2.25143
0.125867
2.25713
0.133307
2.26048
0.141006
2.26149
0.148686
2.26025
0.15605
2.25693
0.162806
2.25176
0.168667
2.24502
0.17337
2.23705
0.176682
2.22824
0.178403
2.21901
0.178383
2.20981
0.176521
2.2011
0.172776
2.19334
0.167178
2.18696
0.159827
2.18236
0.150887
2.17986
0.140585
2.17974
0.129197
2.18219
0.117038
2.18732
0.104442
2.19515
0.0917638
2.20562
0.0793558
2.2186
0.0675521
2.23383
0.056669
2.25105
0.0469843
2.26989
0.0387234
2.28997
0.0320451
2.31087
0.0270228
2.33218
0.0236486
2.35353
0.0218217
2.37459
0.0213653
2.39511
0.022051
2.41491
0.0236247
2.4339
0.0258375
2.45203
0.0284728
2.46928
0.0313597
2.48568
0.0343758
2.50122
0.0374386
2.51592
0.0404832
2.5298
0.0434483
2.54287
0.0462583
2.55516
0.0488141
2.56674
0.0509894
2.5777
0.0526322
2.58819
0.0535776
2.59838
0.053658
2.60851
0.0527145
2.61884
0.0506082
2.62964
0.0472313
2.64121
0.0425049
2.65386
0.0363755
2.66788
0.0288078
2.68355
0.0197777
2.70117
0.00925555
2.72102
-0.00280115
2.74339
-0.0164538
2.76856
-0.0317963
2.79687
-0.0489547
2.82865
-0.0680979
2.86428
-0.0894406
2.90418
-0.113252
2.94883
-0.139857
2.99879
-0.169652
3.05467
-0.203108
3.11723
-0.240782
3.18733
-0.283335
3.26597
-0.33153
3.35438
-0.38625
3.45398
-0.448499
3.5665
-0.519405
3.69402
-0.600193
3.83906
-0.692151
4.0047
-0.796538
4.1947
-0.914419
4.41363
-1.04635
4.66689
-1.1918
4.96052
-1.34813
5.3001
-1.50883
5.68816
-1.66077
6.11839
-1.78078
6.56635
-1.83455
6.98213
-1.78742
7.30676
-1.64529
7.53856
-1.51517
7.70728
-1.47901
7.85302
-1.58779
8.02485
-1.88518
8.29868
-2.43183
8.82332
-3.32957
9.92745
-4.74866
12.3491
-6.91962
17.4532
-9.74665
15.7261
-17.1181
15.2659
-5.54937
15.053
-0.169324
15.1228
0.717917
15.435
2.73894
16.132
6.73044
12.3813
6.78462
12.0124
2.67986
12.3089
1.54796
12.6694
1.55464
12.7435
2.46092
11.3306
5.06524
10.0664
5.58992
8.27335
6.70241
6.56641
6.80694
5.11031
6.46567
3.87492
6.03327
2.79522
5.64752
1.81554
5.35155
0.894377
5.15488
5.05729
0.76462
4.03989
1.37197
3.81517
1.77208
3.44505
1.99382
3.02077
2.09275
2.60729
2.11874
2.23725
2.10577
1.91982
2.07411
1.65205
2.03523
1.42671
1.99562
1.23619
1.95895
1.07389
1.92722
0.934462
1.90147
0.813748
1.88211
0.708527
1.86923
0.616329
1.86263
0.535259
1.862
0.463865
1.86689
0.401035
1.87681
0.345914
1.89117
0.297848
1.90935
0.256325
1.93068
0.22093
1.95445
0.191301
1.97995
0.167085
2.00645
0.147902
2.03328
0.13332
2.05984
0.122841
2.08564
0.115905
2.11032
0.111934
2.13364
0.110371
2.15546
0.110742
2.17571
0.112683
2.19434
0.115968
2.21127
0.120478
2.22636
0.12616
2.23946
0.13298
2.25036
0.14086
2.25887
0.149658
2.26483
0.159141
2.26816
0.168996
2.26885
0.178865
2.267
0.188362
2.26279
0.1971
2.25646
0.204714
2.24833
0.210872
2.23877
0.215278
2.22822
0.217679
2.21714
0.217872
2.20606
0.215721
2.1955
0.21117
2.18599
0.204247
2.17802
0.195076
2.17206
0.183875
2.16847
0.170934
2.16758
0.156609
2.1696
0.141305
2.17465
0.125453
2.18275
0.109499
2.19382
0.0938939
2.20771
0.079071
2.22415
0.0654347
2.24279
0.0533501
2.26322
0.0431134
2.28495
0.0349405
2.3075
0.0289352
2.33036
0.0250791
2.35307
0.0232327
2.37528
0.0231422
2.39668
0.0244738
2.41713
0.0268642
2.43654
0.0299677
2.45492
0.0334962
2.4723
0.037242
2.48874
0.0410748
2.50426
0.0449216
2.51889
0.0487409
2.53261
0.0524869
2.54542
0.05609
2.55734
0.059437
2.56838
0.0623685
2.57865
0.064688
2.58827
0.0661762
2.59744
0.0666043
2.6064
0.0657632
2.61546
0.0634769
2.62491
0.059609
2.63508
0.0540704
2.64629
0.0468132
2.65885
0.037815
2.67303
0.0270659
2.68912
0.0145533
2.70737
0.000247434
2.72804
-0.0159127
2.75141
-0.0340211
2.77773
-0.0542188
2.80731
-0.0766963
2.84047
-0.101696
2.87757
-0.129524
2.91904
-0.160557
2.96533
-0.195249
3.017
-0.234144
3.07468
-0.277895
3.13913
-0.327272
3.21125
-0.383188
3.29213
-0.446708
3.38307
-0.519071
3.48571
-0.601705
3.60206
-0.696234
3.73467
-0.804477
3.88682
-0.928413
4.06277
-1.0701
4.26818
-1.23146
4.51056
-1.41383
4.79981
-1.61691
5.14816
-1.8365
5.56815
-2.05968
6.06461
-2.25544
6.61348
-2.36029
7.12427
-2.27315
7.43688
-1.93263
7.57471
-1.62798
7.59851
-1.47789
7.55563
-1.5197
7.4782
-1.78184
7.40094
-2.32742
7.40424
-3.30373
7.7565
-5.06878
9.52209
-8.64209
10.0818
-11.7232
27.2948
-23.0561
20.6459
-17.9417
15.9402
-3.80608
17.1438
6.22016
19.4265
8.35266
16.1862
3.80806
8.27659
0.691035
10.8805
1.24664
12.3156
1.66874
13.5757
3.58058
15.3479
7.88564
11.8552
8.58645
11.1789
6.29528
8.37788
9.53282
6.22515
8.9875
4.67791
8.03844
3.48917
7.24552
2.49924
6.65945
1.61887
6.25279
0.796788
5.99705
5.8736
0.5399
3.52248
1.00185
3.38225
1.3478
3.13919
1.58034
2.84272
1.72272
2.53402
1.80131
2.23872
1.838
1.96896
1.84876
1.72837
1.84471
1.51618
1.83332
1.32975
1.81952
1.16595
1.80651
1.02169
1.79624
0.89429
1.78992
0.781449
1.78816
0.68129
1.79124
0.592292
1.79917
0.513246
1.81177
0.443199
1.82874
0.381416
1.84965
0.327333
1.87395
0.280516
1.90105
0.240621
1.93024
0.207337
1.96076
0.180352
1.99186
0.159293
2.0228
0.143681
2.05291
0.132923
2.08167
0.126312
2.10876
0.123079
2.13401
0.12248
2.1574
0.123887
2.179
0.126865
2.19885
0.131179
2.21695
0.136775
2.23318
0.143696
2.24734
0.152002
2.25916
0.161678
2.26835
0.17258
2.27468
0.184431
2.27802
0.196829
2.27835
0.209294
2.27574
0.221322
2.27041
0.232419
2.26262
0.242132
2.25273
0.250051
2.24117
0.255814
2.22841
0.2591
2.21499
0.259649
2.20151
0.257273
2.18858
0.251884
2.17682
0.243514
2.16682
0.232315
2.15911
0.21856
2.15415
0.202623
2.15228
0.18496
2.15375
0.166077
2.15869
0.14652
2.16714
0.126845
2.179
0.10761
2.19408
0.0893597
2.21206
0.0726082
2.23255
0.0578247
2.25504
0.0454024
2.27895
0.0356292
2.30364
0.0286579
2.32851
0.0244672
2.35298
0.0228562
2.37661
0.0234603
2.39907
0.0257993
2.42023
0.0293513
2.44007
0.0336347
2.45866
0.0382688
2.47613
0.043007
2.49259
0.0477313
2.50808
0.0524089
2.52263
0.0570502
2.53621
0.0616517
2.54877
0.06616
2.56027
0.0704556
2.5707
0.0743417
2.58013
0.0775598
2.58869
0.0798151
2.59659
0.0808068
2.60412
0.0802503
2.61159
0.0779176
2.61937
0.0736471
2.62783
0.0673478
2.6373
0.0589849
2.6481
0.0485647
2.66052
0.0361116
2.67481
0.0216408
2.69121
0.00514545
2.70994
-0.0134219
2.73121
-0.0341549
2.75525
-0.057202
2.78231
-0.0827662
2.81264
-0.111117
2.84654
-0.142588
2.88434
-0.177592
2.92643
-0.216631
2.97325
-0.260313
3.0253
-0.309364
3.08322
-0.364654
3.14773
-0.427221
3.21976
-0.498298
3.30044
-0.579342
3.39118
-0.672076
3.49382
-0.778523
3.61074
-0.901061
3.74513
-1.04248
3.90141
-1.20602
4.08581
-1.39545
4.30749
-1.61498
4.58022
-1.86891
4.92498
-2.16012
5.37239
-2.48522
5.95977
-2.81945
6.70062
-3.07456
7.46479
-3.00518
7.74153
-2.18013
7.7248
-1.58395
7.5567
-1.28333
7.29349
-1.23016
6.93262
-1.39429
6.42462
-1.79204
5.63919
-2.48998
4.18319
-3.58353
6.44103
-5.03247
-1.25119
-8.3448
32.4092
-4.03623
34.7815
-7.57389
25.9665
1.20032
19.2763
7.32385
14.8819
9.4831
13.0692
11.948
8.83219
12.8297
11.3026
14.4419
14.2274
14.5086
17.8807
9.61186
16.0487
6.83809
9.56407
6.75742
14.4164
16.8852
7.83256
16.1458
5.27609
11.5722
3.88499
9.45541
2.9031
8.25122
2.09258
7.49222
1.36313
7.00333
0.673342
6.70704
6.56651
0.399667
3.16845
0.758795
3.07588
1.05133
2.90911
1.27164
2.69508
1.42741
2.45919
1.53155
2.22027
1.59741
1.99008
1.63657
1.77488
1.65829
1.5773
1.66951
1.39776
1.67527
1.23554
1.6791
1.08937
1.6834
0.957833
1.68976
0.839523
1.69916
0.73317
1.71219
0.637672
1.72912
0.552111
1.74999
0.475747
1.77466
0.408006
1.80283
0.348461
1.83406
0.2968
1.86777
0.252798
1.90325
0.216257
1.9397
0.186949
1.97625
0.164549
2.01204
0.148565
2.04629
0.138289
2.07844
0.132817
2.10816
0.131104
2.13541
0.132135
2.16038
0.135057
2.18331
0.139335
2.20444
0.144767
2.22387
0.151433
2.24149
0.159567
2.25702
0.169402
2.27006
0.181033
2.2802
0.194347
2.28708
0.208992
2.29049
0.224432
2.29038
0.240022
2.28684
0.255091
2.28012
0.269016
2.27054
0.281246
2.2585
0.291299
2.24446
0.298744
2.22896
0.303187
2.21262
0.304283
2.19612
0.301774
2.18021
0.295523
2.16562
0.285553
2.15307
0.272055
2.14318
0.255373
2.13648
0.235988
2.1334
0.214476
2.13419
0.191474
2.13902
0.167654
2.14791
0.1437
2.16075
0.120293
2.17732
0.0981015
2.19728
0.077768
2.22013
0.0598899
2.24527
0.0449916
2.27197
0.0334711
2.29945
0.0255515
2.3269
0.0212242
2.35359
0.0202161
2.37895
0.0220005
2.40263
0.0258725
2.42451
0.031071
2.4447
0.0369143
2.4634
0.0429005
2.48086
0.048752
2.49726
0.0543976
2.51272
0.0599002
2.52723
0.0653679
2.54072
0.0708774
2.55307
0.0764169
2.56415
0.0818579
2.57392
0.0869562
2.58239
0.0913731
2.58969
0.0947035
2.59604
0.0965361
2.60178
0.0964943
2.60732
0.09428
2.61307
0.0897009
2.61946
0.0826733
2.62688
0.0731998
2.63565
0.0613383
2.64605
0.0471651
2.65832
0.0307474
2.67264
0.0121109
2.6892
-0.00876839
2.70816
-0.0319758
2.72969
-0.0576641
2.75396
-0.0860481
2.78117
-0.117411
2.81154
-0.152108
2.84531
-0.190581
2.88275
-0.233361
2.9242
-0.281099
2.97001
-0.334577
3.02065
-0.394739
3.07666
-0.462723
3.13872
-0.539894
3.2077
-0.627894
3.28473
-0.728696
3.37128
-0.844676
3.46932
-0.978714
3.58159
-1.13434
3.71198
-1.31595
3.86628
-1.52919
4.05356
-1.78152
4.28901
-2.08327
4.59988
-2.44927
5.03815
-2.90056
5.70466
-3.46046
6.77
-4.10768
8.28983
-4.47824
8.33771
-2.1959
8.02542
-1.24305
7.60987
-0.840488
7.12936
-0.722725
6.53487
-0.77286
5.72668
-0.956753
4.54564
-1.28165
2.73425
-1.74478
3.1287
-2.54006
3.05738
-3.90722
28.8716
-2.36536
43.5557
6.30791
32.09
12.2081
21.4356
17.8697
17.3469
25.3868
13.9509
30.353
10.4444
32.5976
11.3692
33.1382
9.33072
29.4776
15.107
22.5657
15.968
20.8878
19.6918
27.0772
13.6771
28.3571
3.25894
14.1045
3.1593
11.6961
2.6808
9.95781
2.14409
8.81104
1.6037
8.0547
1.06683
7.56132
0.532814
7.26131
7.11892
0.307097
2.92734
0.592023
2.86215
0.837296
2.74101
1.03576
2.57901
1.18849
2.39211
1.30136
2.19392
1.38222
1.99461
1.43899
1.80097
1.47875
1.61712
1.50729
1.44518
1.52911
1.286
1.54756
1.13963
1.56509
1.00564
1.5834
0.883406
1.60366
0.772205
1.62663
0.671343
1.65276
0.580195
1.68225
0.498247
1.71511
0.425113
1.75117
0.360533
1.79006
0.304363
1.83123
0.256545
1.87394
0.217055
1.91731
0.185824
1.96027
0.162643
2.00177
0.147047
2.04082
0.138219
2.07673
0.134975
2.10919
0.13586
2.13834
0.139405
2.16465
0.144424
2.18874
0.150239
2.21111
0.156744
2.232
0.164282
2.25132
0.173423
2.26865
0.184717
2.28337
0.198454
2.29484
0.214554
2.30252
0.232558
2.30608
0.251714
2.30544
0.271116
2.30076
0.289868
2.29235
0.307185
2.28059
0.322425
2.26594
0.335057
2.2489
0.344587
2.23005
0.350537
2.21011
0.352448
2.18987
0.349944
2.17024
0.342813
2.15212
0.331056
2.13638
0.314912
2.12379
0.294828
2.11497
0.271422
2.11039
0.245425
2.11037
0.217633
2.11506
0.188867
2.1245
0.159953
2.13856
0.131703
2.15699
0.104926
2.1794
0.0804121
2.20523
0.0589197
2.23375
0.041145
2.26405
0.0276568
2.29513
0.0188026
2.32589
0.0146134
2.35537
0.0147292
2.38282
0.0183935
2.40782
0.0245591
2.43036
0.0320906
2.45069
0.039999
2.46925
0.0476173
2.4865
0.0546608
2.50277
0.0611697
2.51819
0.0673879
2.53274
0.0736087
2.54626
0.0800406
2.55851
0.0867398
2.56925
0.0935736
2.57834
0.100229
2.58572
0.106243
2.59152
0.111065
2.596
0.114117
2.59957
0.114888
2.60274
0.112985
2.60605
0.108184
2.60999
0.100428
2.61501
0.0897862
2.62147
0.0764059
2.62963
0.0604511
2.63968
0.0420606
2.65176
0.0213127
2.666
-0.00178806
2.68247
-0.0273204
2.7013
-0.0554331
2.72259
-0.0863511
2.74647
-0.120368
2.77306
-0.15785
2.80253
-0.199252
2.83502
-0.245123
2.87072
-0.296131
2.90985
-0.353089
2.95267
-0.416984
2.99949
-0.489014
3.05072
-0.570634
3.1069
-0.663611
3.16875
-0.770098
3.23724
-0.89272
3.31369
-1.03471
3.39998
-1.20012
3.49874
-1.39413
3.61394
-1.62365
3.75181
-1.89836
3.92302
-2.23297
4.14859
-2.65244
4.47826
-3.20617
5.05744
-4.01197
6.39944
-5.41165
10.5722
-8.5893
9.29056
-9.60196
8.42798
-4.93634
7.72763
-2.09016
7.07923
-0.656478
6.35097
-0.220963
5.40178
0.231676
4.08251
0.732694
1.93896
0.424998
1.76155
-0.704045
4.59924
-1.37791
37.5448
14.8464
49.456
26.2103
37.7515
23.6129
28.9527
26.6556
22.3131
31.811
16.1955
36.1407
10.985
37.4074
7.70862
35.8758
2.41883
34.2103
13.429
38.4006
22.1574
39.7469
20.9717
36.0798
-0.575529
17.6289
0.850542
13.2368
1.42105
11.1487
1.53403
9.86775
1.38775
8.97981
1.11032
8.35395
0.766826
7.92584
0.390419
7.65798
7.52895
0.241904
2.76333
0.470883
2.71392
0.675298
2.62006
0.848852
2.49067
0.990305
2.33621
1.10205
2.16663
1.18858
1.99033
1.25513
1.81375
1.30681
1.64145
1.34811
1.47646
1.38273
1.32056
1.41358
1.17469
1.44286
1.03918
1.4722
0.914
1.5028
0.798883
1.53548
0.693483
1.57081
0.59744
1.60911
0.510452
1.65053
0.432319
1.695
0.362965
1.74224
0.302446
1.79174
0.250927
1.84271
0.208638
1.89412
0.17577
1.94467
0.152342
1.99294
0.13801
2.03758
0.131876
2.07761
0.132366
2.11273
0.137367
2.14336
0.14466
2.17047
0.152493
2.19525
0.160002
2.21865
0.167274
2.24115
0.175144
2.26262
0.184788
2.28239
0.197279
2.29947
0.213234
2.31285
0.232617
2.32168
0.254761
2.32548
0.278559
2.3242
0.302696
2.31808
0.325934
2.30759
0.347296
2.29322
0.366094
2.27547
0.381803
2.25485
0.393913
2.23197
0.401834
2.2076
0.404937
2.18274
0.402658
2.15848
0.39465
2.13598
0.380876
2.1163
0.361639
2.10039
0.337538
2.08898
0.309382
2.0826
0.278106
2.0816
0.244703
2.08615
0.210165
2.09625
0.175472
2.11178
0.141577
2.13248
0.109426
2.15791
0.0799719
2.18746
0.0541694
2.22026
0.0329492
2.2552
0.0171384
2.29094
0.00731514
2.32601
0.00362776
2.35904
0.00562975
2.38898
0.0122252
2.41536
0.0218201
2.43827
0.0326758
2.45831
0.0433218
2.4763
0.0528602
2.49301
0.0610502
2.50898
0.0681816
2.52441
0.0748288
2.53918
0.0815928
2.55296
0.088898
2.56534
0.0968926
2.57591
0.10543
2.58435
0.114102
2.59054
0.122274
2.59457
0.129164
2.59677
0.133957
2.59767
0.135928
2.59794
0.13456
2.59829
0.129599
2.59935
0.121046
2.60163
0.109094
2.60552
0.0940305
2.61124
0.0761578
2.61893
0.0557178
2.62866
0.0328554
2.64046
0.00760756
2.65436
-0.020093
2.67038
-0.050404
2.68858
-0.083559
2.70899
-0.119859
2.73166
-0.159673
2.75665
-0.203452
2.78401
-0.25174
2.81376
-0.305202
2.84595
-0.364648
2.88064
-0.431072
2.91787
-0.505686
2.95774
-0.589981
3.00042
-0.685778
3.04613
-0.795313
3.09525
-0.921328
3.14829
-1.06721
3.20596
-1.23718
3.26922
-1.43665
3.33923
-1.67269
3.4172
-1.95497
3.50355
-2.29732
3.59486
-2.72065
3.67246
-3.2587
3.65776
-3.96817
3.22179
-4.93621
9.55951
-6.18984
13.9562
-12.0976
11.2742
-13.2406
9.16131
-7.28693
7.51474
-1.53723
6.80361
2.45373
5.9028
2.99361
3.77481
1.06123
0.80992
0.0194443
1.08768
0.465452
20.8236
0.973364
48.9087
20.5433
46.8586
27.6424
40.7942
29.6412
34.1081
33.3403
26.6427
39.2681
17.4622
45.3057
9.45345
45.3933
6.04311
39.2518
6.60915
33.6074
14.7752
29.562
18.4903
23.2443
2.52074
10.5681
-4.96762
6.24816
-1.23755
9.53003
0.140136
9.79379
0.64609
9.38423
0.761887
8.88612
0.682209
8.45521
0.498968
8.13001
0.261386
7.9158
7.80994
0.192492
2.65293
0.37702
2.61271
0.545914
2.53522
0.69439
2.42618
0.820726
2.29282
0.925749
2.14264
1.012
1.98256
1.08284
1.81844
1.14181
1.65488
1.19221
1.49529
1.23686
1.34203
1.27807
1.19662
1.31767
1.05991
1.35709
0.93228
1.3974
0.81382
1.43944
0.704431
1.48382
0.603961
1.53098
0.512279
1.58118
0.429349
1.63448
0.355278
1.69072
0.290342
1.74945
0.234986
1.80985
0.189784
1.87069
0.155333
1.93034
0.132067
1.98681
0.119967
2.03807
0.118152
2.08262
0.124551
2.12003
0.13594
2.15119
0.148794
2.17798
0.160359
2.20252
0.169507
2.22652
0.176761
2.25079
0.18383
2.27511
0.192935
2.29834
0.206053
2.31886
0.224302
2.33499
0.24766
2.34547
0.275088
2.34962
0.304863
2.34743
0.334995
2.33944
0.363713
2.32639
0.389827
2.30893
0.412719
2.28758
0.43203
2.26277
0.447312
2.23507
0.457849
2.20533
0.462714
2.17473
0.461014
2.14471
0.452166
2.11674
0.436078
2.0922
0.413158
2.07223
0.38423
2.0577
0.350386
2.0492
0.312841
2.04707
0.272833
2.05146
0.231551
2.06235
0.190125
2.07963
0.149637
2.10302
0.111158
2.13211
0.0758015
2.16624
0.0447556
2.20445
0.0192701
2.24538
0.000563631
2.28725
-0.0103782
2.32801
-0.0131242
2.36563
-0.00814755
2.39858
0.002973
2.42621
0.0177404
2.44891
0.0333937
2.46785
0.0476755
2.48449
0.0593824
2.50014
0.0684399
2.51563
0.0756237
2.53117
0.0821052
2.54648
0.08899
2.56095
0.0970184
2.57388
0.106455
2.58458
0.117118
2.59252
0.128443
2.59743
0.13955
2.59936
0.149328
2.59874
0.156585
2.5963
0.160277
2.59298
0.159698
2.58974
0.154574
2.5874
0.145035
2.58657
0.131483
2.58765
0.114441
2.5908
0.0944098
2.59607
0.0717763
2.60342
0.0467671
2.61276
0.0194447
2.62405
-0.0102632
2.63723
-0.0425363
2.65228
-0.0776237
2.66917
-0.115833
2.68788
-0.157525
2.70837
-0.203131
2.73055
-0.253169
2.75431
-0.30827
2.77953
-0.369209
2.80602
-0.436941
2.83357
-0.512646
2.86194
-0.597784
2.89088
-0.694156
2.92012
-0.803983
2.94937
-0.929986
2.97831
-1.0755
3.0065
-1.2446
3.03318
-1.44238
3.05695
-1.6752
3.07485
-1.95113
3.08021
-2.28016
3.05681
-2.6735
2.96299
-3.139
2.68972
-3.66478
1.96815
-4.17438
3.65176
-4.46914
12.8131
-6.86195
17.2279
-4.43116
14.911
-0.0691216
11.5057
0.325002
7.34349
2.61625
3.97042
5.50818
2.73303
9.80832
1.25593
14.8858
1.59559
23.0812
40.3935
38.2532
56.0078
42.5761
48.8574
34.6967
44.4933
34.001
40.0359
37.7974
32.6803
46.6233
17.5498
60.4354
3.31196
59.6298
0.398654
42.1634
2.56374
31.441
8.45755
23.6372
5.81416
16.0077
-1.79919
9.12833
-1.68575
7.94108
-0.973797
8.84131
-0.269421
9.11227
0.147977
8.98921
0.330977
8.72505
0.357008
8.4506
0.284756
8.22309
0.155532
8.06522
7.98508
0.152268
2.58229
0.29953
2.54739
0.436878
2.47956
0.561029
2.38283
0.670544
2.26254
0.765669
2.1246
0.847872
1.9749
0.919278
1.81879
0.982227
1.66079
1.03896
1.50453
1.09145
1.3527
1.14136
1.20716
1.19005
1.06911
1.23863
0.939178
1.28801
0.817664
1.33897
0.704619
1.39214
0.600006
1.44805
0.503801
1.50711
0.416085
1.56954
0.337122
1.63536
0.267418
1.70424
0.207737
1.77539
0.159102
1.84743
0.122702
1.91824
0.0996881
1.98499
0.0907618
2.04447
0.0954031
2.094
0.110997
2.13288
0.132361
2.16276
0.153577
2.18713
0.170059
2.20977
0.180387
2.23359
0.185955
2.2599
0.190052
2.28823
0.196686
2.31659
0.209354
2.34221
0.229958
2.36242
0.258365
2.37525
0.29283
2.37975
0.330593
2.37615
0.368516
2.36556
0.403922
2.34928
0.435423
2.32824
0.462783
2.30286
0.486157
2.27331
0.505337
2.23993
0.51942
2.20363
0.52695
2.16589
0.52642
2.12862
0.516836
2.09382
0.498022
2.06327
0.470597
2.03839
0.435757
2.02016
0.395014
2.00919
0.349966
2.00578
0.302159
2.01003