/*--------------------------------*- C++ -*----------------------------------*\
| =========                 |                                                 |
| \\      /  F ield         | OpenFOAM: The Open Source CFD Toolbox           |
|  \\    /   O peration     | Version:  2.1.0                                 |
|   \\  /    A nd           | Web:      www.OpenFOAM.org                      |
|    \\/     M anipulation  |                                                 |
\*---------------------------------------------------------------------------*/
FoamFile
{
    version     2.0;
    format      ascii;
    class       volScalarField;
    location    "64240";
    object      po;
}
// * * * * * * * * * * * * * * * * * * * * * * * * * * * * * * * * * * * * * //

dimensions      [1 -1 -2 0 0 0 0];

internalField   nonuniform List<scalar> 
15000
(
5665.68
5647.08
5635.85
5628.09
5622.22
5617.53
5613.62
5610.24
5607.25
5604.51
5601.97
5599.56
5597.27
5595.06
5592.91
5590.82
5588.76
5586.72
5584.71
5582.7
5580.7
5578.7
5576.69
5574.67
5572.63
5570.59
5568.52
5566.44
5564.34
5562.22
5560.09
5557.93
5555.76
5553.58
5551.38
5549.17
5546.95
5544.72
5542.48
5540.24
5537.99
5535.74
5533.49
5531.25
5529
5526.76
5524.53
5522.3
5520.08
5517.86
5515.65
5513.44
5511.24
5509.04
5506.83
5504.63
5502.43
5500.22
5498
5495.77
5493.53
5491.28
5489.01
5486.73
5484.43
5482.11
5479.77
5477.42
5475.04
5472.65
5470.24
5467.81
5465.36
5462.9
5460.42
5457.92
5455.41
5452.89
5450.35
5447.8
5445.23
5442.66
5440.07
5437.47
5434.85
5432.23
5429.59
5426.94
5424.27
5421.58
5418.88
5416.15
5413.4
5410.63
5407.82
5404.99
5402.11
5399.2
5396.24
5393.23
5390.16
5387.03
5383.82
5380.53
5377.15
5373.67
5370.07
5366.34
5362.45
5358.41
5354.17
5349.72
5345.04
5340.1
5334.87
5329.33
5323.47
5317.25
5310.68
5303.75
5296.44
5288.76
5280.66
5272.11
5263.04
5253.35
5242.94
5231.73
5219.7
5206.92
5193.59
5179.92
5166.09
5152.26
5138.58
5125.19
5112.23
5099.76
5087.83
5076.5
5065.87
5056.09
5047.29
5039.55
5032.94
5027.49
5023.17
5019.97
5017.85
5016.8
5647.06
5639.72
5632.38
5626.19
5621.05
5616.75
5613.06
5609.82
5606.91
5604.24
5601.74
5599.37
5597.11
5594.92
5592.79
5590.71
5588.67
5586.65
5584.64
5582.64
5580.65
5578.65
5576.65
5574.63
5572.6
5570.56
5568.5
5566.42
5564.32
5562.2
5560.06
5557.91
5555.74
5553.56
5551.36
5549.15
5546.92
5544.69
5542.45
5540.21
5537.96
5535.71
5533.46
5531.21
5528.97
5526.73
5524.49
5522.27
5520.04
5517.83
5515.62
5513.41
5511.21
5509.01
5506.81
5504.61
5502.41
5500.2
5497.98
5495.75
5493.52
5491.27
5489
5486.72
5484.42
5482.1
5479.77
5477.41
5475.04
5472.65
5470.23
5467.8
5465.36
5462.89
5460.41
5457.92
5455.4
5452.88
5450.34
5447.79
5445.22
5442.65
5440.06
5437.46
5434.85
5432.22
5429.58
5426.93
5424.26
5421.58
5418.87
5416.15
5413.41
5410.63
5407.83
5405
5402.13
5399.22
5396.27
5393.27
5390.2
5387.08
5383.88
5380.6
5377.24
5373.77
5370.18
5366.46
5362.6
5358.57
5354.36
5349.94
5345.28
5340.37
5335.16
5329.65
5323.79
5317.59
5311.03
5304.1
5296.8
5289.14
5281.1
5272.62
5263.63
5254.05
5243.72
5232.54
5220.42
5207.45
5193.92
5180.06
5166.07
5152.09
5138.26
5124.75
5111.72
5099.21
5087.21
5075.77
5065.01
5055.1
5046.19
5038.4
5031.77
5026.33
5022.04
5018.86
5016.77
5015.73
5635.79
5632.34
5627.78
5623.22
5619.05
5615.33
5612.01
5609.01
5606.27
5603.71
5601.3
5599
5596.79
5594.64
5592.55
5590.51
5588.49
5586.49
5584.51
5582.53
5580.55
5578.57
5576.57
5574.57
5572.55
5570.51
5568.45
5566.37
5564.28
5562.16
5560.02
5557.87
5555.7
5553.51
5551.31
5549.1
5546.87
5544.64
5542.4
5540.15
5537.9
5535.65
5533.4
5531.15
5528.9
5526.66
5524.43
5522.2
5519.98
5517.76
5515.55
5513.35
5511.15
5508.95
5506.76
5504.56
5502.36
5500.16
5497.95
5495.73
5493.49
5491.25
5488.98
5486.71
5484.41
5482.09
5479.76
5477.4
5475.03
5472.63
5470.22
5467.79
5465.34
5462.88
5460.4
5457.9
5455.39
5452.86
5450.32
5447.77
5445.2
5442.63
5440.04
5437.44
5434.83
5432.2
5429.57
5426.92
5424.25
5421.57
5418.87
5416.15
5413.41
5410.65
5407.86
5405.03
5402.17
5399.27
5396.33
5393.34
5390.29
5387.18
5384
5380.75
5377.4
5373.96
5370.4
5366.72
5362.89
5358.91
5354.74
5350.37
5345.76
5340.9
5335.74
5330.27
5324.45
5318.27
5311.71
5304.79
5297.52
5289.9
5281.94
5273.6
5264.82
5255.46
5245.35
5234.26
5221.97
5208.52
5194.54
5180.32
5166.03
5151.75
5137.6
5123.8
5110.68
5098.12
5086
5074.34
5063.28
5053.09
5043.97
5036.06
5029.4
5023.99
5019.76
5016.66
5014.61
5013.6
5627.96
5626.08
5623.16
5619.88
5616.6
5613.49
5610.59
5607.89
5605.35
5602.95
5600.66
5598.45
5596.32
5594.24
5592.21
5590.21
5588.23
5586.27
5584.31
5582.36
5580.41
5578.44
5576.46
5574.47
5572.46
5570.43
5568.38
5566.31
5564.21
5562.1
5559.96
5557.81
5555.64
5553.45
5551.25
5549.03
5546.8
5544.56
5542.32
5540.07
5537.81
5535.56
5533.3
5531.05
5528.8
5526.56
5524.32
5522.09
5519.87
5517.66
5515.45
5513.25
5511.06
5508.87
5506.68
5504.49
5502.3
5500.1
5497.9
5495.68
5493.46
5491.22
5488.96
5486.68
5484.39
5482.08
5479.74
5477.39
5475.01
5472.62
5470.21
5467.77
5465.32
5462.86
5460.37
5457.88
5455.36
5452.83
5450.29
5447.74
5445.17
5442.6
5440.01
5437.41
5434.8
5432.18
5429.54
5426.9
5424.24
5421.56
5418.87
5416.16
5413.43
5410.67
5407.89
5405.08
5402.23
5399.35
5396.42
5393.45
5390.42
5387.34
5384.18
5380.96
5377.65
5374.24
5370.73
5367.1
5363.33
5359.4
5355.31
5351.01
5346.48
5341.7
5336.63
5331.22
5325.46
5319.3
5312.75
5305.82
5298.55
5290.98
5283.14
5275.02
5266.55
5257.6
5247.93
5237.14
5224.65
5210.11
5195.36
5180.63
5165.94
5151.25
5136.57
5122.15
5109.04
5096.57
5084.33
5072.28
5060.65
5049.99
5040.51
5032.43
5025.78
5020.46
5016.35
5013.36
5011.41
5010.44
5622.01
5620.86
5618.91
5616.52
5613.97
5611.42
5608.93
5606.53
5604.22
5602
5599.85
5597.76
5595.72
5593.72
5591.76
5589.82
5587.89
5585.98
5584.06
5582.14
5580.22
5578.28
5576.32
5574.35
5572.35
5570.33
5568.29
5566.22
5564.13
5562.02
5559.88
5557.73
5555.56
5553.37
5551.16
5548.94
5546.71
5544.46
5542.21
5539.95
5537.69
5535.43
5533.17
5530.91
5528.66
5526.42
5524.18
5521.95
5519.73
5517.52
5515.32
5513.13
5510.94
5508.76
5506.58
5504.4
5502.22
5500.03
5497.84
5495.63
5493.41
5491.18
5488.93
5486.66
5484.37
5482.06
5479.72
5477.37
5474.99
5472.6
5470.18
5467.75
5465.3
5462.83
5460.34
5457.84
5455.33
5452.8
5450.25
5447.7
5445.13
5442.55
5439.97
5437.37
5434.76
5432.14
5429.51
5426.87
5424.22
5421.55
5418.86
5416.16
5413.44
5410.7
5407.93
5405.13
5402.3
5399.44
5396.54
5393.59
5390.59
5387.53
5384.42
5381.23
5377.96
5374.61
5371.16
5367.59
5363.89
5360.06
5356.05
5351.86
5347.44
5342.78
5337.82
5332.52
5326.83
5320.71
5314.14
5307.16
5299.85
5292.31
5284.61
5276.75
5268.73
5260.43
5251.61
5241.68
5229.33
5211.88
5196.15
5180.89
5165.83
5150.71
5135.28
5119.14
5106.76
5094.75
5082.44
5069.77
5057.03
5045.7
5035.63
5027.36
5020.79
5015.68
5011.81
5009.01
5007.19
5006.3
5617.22
5616.45
5615.08
5613.31
5611.31
5609.22
5607.1
5605
5602.92
5600.89
5598.89
5596.93
5595
5593.1
5591.22
5589.35
5587.49
5585.63
5583.76
5581.88
5579.99
5578.08
5576.15
5574.2
5572.22
5570.21
5568.18
5566.12
5564.03
5561.92
5559.79
5557.63
5555.46
5553.26
5551.05
5548.83
5546.59
5544.34
5542.08
5539.81
5537.54
5535.28
5533.01
5530.75
5528.49
5526.24
5524
5521.77
5519.56
5517.35
5515.15
5512.97
5510.79
5508.62
5506.45
5504.28
5502.11
5499.94
5497.76
5495.56
5493.35
5491.13
5488.89
5486.62
5484.34
5482.03
5479.7
5477.35
5474.97
5472.58
5470.16
5467.72
5465.27
5462.8
5460.31
5457.8
5455.28
5452.75
5450.21
5447.65
5445.08
5442.5
5439.91
5437.32
5434.71
5432.09
5429.47
5426.83
5424.19
5421.53
5418.86
5416.17
5413.46
5410.73
5407.98
5405.2
5402.39
5399.55
5396.68
5393.76
5390.79
5387.77
5384.7
5381.56
5378.35
5375.06
5371.67
5368.19
5364.59
5360.85
5356.97
5352.9
5348.63
5344.12
5339.32
5334.18
5328.61
5322.54
5315.93
5308.81
5301.37
5293.79
5286.2
5278.64
5271.16
5263.76
5256.36
5248.6
5239.08
5229
5201.7
5181.06
5165.12
5147.97
5128.54
5112.36
5104.08
5093.2
5080.89
5067.31
5051.96
5040.11
5028.93
5020.55
5014.33
5009.65
5006.16
5003.66
5002.04
5001.24
5613.18
5612.64
5611.63
5610.29
5608.71
5606.98
5605.18
5603.34
5601.5
5599.65
5597.82
5596
5594.19
5592.39
5590.6
5588.82
5587.03
5585.23
5583.41
5581.59
5579.74
5577.86
5575.96
5574.03
5572.07
5570.08
5568.06
5566
5563.92
5561.81
5559.68
5557.52
5555.34
5553.14
5550.93
5548.69
5546.45
5544.19
5541.92
5539.64
5537.37
5535.09
5532.81
5530.54
5528.28
5526.03
5523.78
5521.56
5519.34
5517.14
5514.95
5512.77
5510.61
5508.45
5506.29
5504.14
5501.99
5499.83
5497.66
5495.48
5493.29
5491.08
5488.84
5486.59
5484.31
5482.01
5479.68
5477.33
5474.95
5472.55
5470.13
5467.69
5465.23
5462.75
5460.26
5457.75
5455.23
5452.69
5450.15
5447.59
5445.02
5442.43
5439.85
5437.25
5434.65
5432.03
5429.41
5426.79
5424.15
5421.5
5418.84
5416.17
5413.47
5410.76
5408.03
5405.28
5402.5
5399.68
5396.84
5393.95
5391.03
5388.05
5385.03
5381.94
5378.8
5375.58
5372.28
5368.89
5365.39
5361.78
5358.04
5354.13
5350.05
5345.74
5341.16
5336.24
5330.86
5324.9
5318.2
5310.74
5303
5295.27
5287.72
5280.42
5273.49
5267.06
5261.43
5257.24
5250.8
5252.05
5219.64
5184.86
5158.89
5139.62
5124.74
5111.67
5102.84
5091.53
5077.31
5059.42
5043.38
5033.81
5019.4
5011.56
5006.29
5002.4
4999.5
4997.41
4996.04
4995.37
5609.65
5609.25
5608.49
5607.44
5606.17
5604.74
5603.21
5601.62
5599.98
5598.32
5596.65
5594.98
5593.3
5591.61
5589.92
5588.22
5586.51
5584.78
5583.03
5581.26
5579.46
5577.62
5575.75
5573.85
5571.91
5569.93
5567.92
5565.88
5563.8
5561.69
5559.55
5557.39
5555.21
5553.01
5550.78
5548.54
5546.28
5544.01
5541.73
5539.45
5537.16
5534.87
5532.58
5530.3
5528.03
5525.77
5523.53
5521.3
5519.08
5516.89
5514.71
5512.54
5510.39
5508.25
5506.11
5503.98
5501.84
5499.7
5497.55
5495.39
5493.22
5491.02
5488.8
5486.55
5484.28
5481.98
5479.66
5477.3
5474.92
5472.52
5470.1
5467.65
5465.19
5462.71
5460.21
5457.7
5455.17
5452.63
5450.08
5447.51
5444.94
5442.36
5439.77
5437.17
5434.57
5431.96
5429.35
5426.73
5424.1
5421.47
5418.82
5416.16
5413.49
5410.8
5408.09
5405.36
5402.61
5399.83
5397.01
5394.17
5391.29
5388.36
5385.39
5382.37
5379.29
5376.16
5372.95
5369.66
5366.29
5362.82
5359.24
5355.53
5351.66
5347.61
5343.32
5338.72
5333.68
5327.98
5321.21
5312.92
5304.58
5296.56
5288.95
5281.82
5275.28
5269.55
5265.01
5262.27
5259.15
5256.09
5227.22
5183.66
5151.57
5130.14
5112.79
5098.84
5088.39
5077.02
5067.69
5052.59
5036.62
5016.93
5003.25
4999.99
4996.83
4994.15
4992.01
4990.4
4989.34
4988.8
5606.48
5606.18
5605.59
5604.75
5603.71
5602.52
5601.22
5599.84
5598.4
5596.92
5595.42
5593.89
5592.34
5590.77
5589.19
5587.59
5585.96
5584.31
5582.63
5580.91
5579.16
5577.37
5575.54
5573.66
5571.75
5569.79
5567.78
5565.74
5563.67
5561.56
5559.42
5557.25
5555.07
5552.85
5550.62
5548.37
5546.1
5543.82
5541.52
5539.22
5536.92
5534.61
5532.31
5530.02
5527.74
5525.47
5523.22
5520.99
5518.78
5516.59
5514.42
5512.27
5510.13
5508.01
5505.89
5503.78
5501.67
5499.56
5497.43
5495.3
5493.14
5490.96
5488.75
5486.52
5484.26
5481.96
5479.63
5477.28
5474.9
5472.49
5470.06
5467.61
5465.14
5462.65
5460.15
5457.63
5455.1
5452.55
5449.99
5447.42
5444.85
5442.26
5439.67
5437.07
5434.47
5431.87
5429.26
5426.65
5424.04
5421.42
5418.79
5416.15
5413.5
5410.83
5408.15
5405.45
5402.72
5399.98
5397.21
5394.4
5391.57
5388.7
5385.79
5382.83
5379.83
5376.78
5373.68
5370.51
5367.27
5363.96
5360.56
5357.06
5353.44
5349.69
5345.77
5341.62
5337.14
5332.09
5325.69
5315.11
5305.82
5297.4
5289.67
5282.59
5276.24
5270.84
5266.75
5264.81
5263.05
5258.45
5220.91
5171.45
5133.7
5104.75
5082.44
5066.24
5055.26
5047.55
5045.13
5031.7
5009.54
4988.57
4989.15
4988.29
4986.87
4985.34
4983.95
4982.84
4982.07
4981.68
5603.56
5603.32
5602.84
5602.17
5601.32
5600.33
5599.23
5598.04
5596.78
5595.48
5594.13
5592.75
5591.33
5589.89
5588.42
5586.92
5585.38
5583.81
5582.2
5580.55
5578.85
5577.11
5575.32
5573.48
5571.58
5569.64
5567.65
5565.61
5563.53
5561.42
5559.27
5557.1
5554.91
5552.69
5550.45
5548.19
5545.9
5543.6
5541.29
5538.97
5536.64
5534.32
5532
5529.69
5527.4
5525.13
5522.87
5520.64
5518.43
5516.25
5514.09
5511.95
5509.84
5507.74
5505.65
5503.57
5501.48
5499.4
5497.3
5495.19
5493.06
5490.9
5488.71
5486.49
5484.24
5481.95
5479.62
5477.26
5474.87
5472.46
5470.02
5467.56
5465.08
5462.59
5460.08
5457.56
5455.02
5452.47
5449.9
5447.32
5444.74
5442.15
5439.55
5436.96
5434.36
5431.76
5429.16
5426.56
5423.96
5421.36
5418.75
5416.13
5413.5
5410.86
5408.2
5405.53
5402.84
5400.14
5397.4
5394.65
5391.86
5389.05
5386.2
5383.32
5380.41
5377.45
5374.45
5371.4
5368.31
5365.16
5361.95
5358.68
5355.34
5351.93
5348.42
5344.83
5341.16
5337.5
5334.28
5324.72
5310.76
5299.49
5290.32
5282.81
5276.01
5270.1
5266.33
5265.52
5264.43
5243.61
5194.7
5147.84
5107.05
5072.94
5046.29
5028.83
5019.38
5013.34
5006.73
4991.95
4973.46
4970.94
4975.91
4977.15
4977.01
4976.36
4975.6
4974.92
4974.42
4974.16
5600.79
5600.6
5600.22
5599.68
5598.98
5598.16
5597.24
5596.23
5595.14
5594
5592.81
5591.57
5590.29
5588.98
5587.62
5586.22
5584.78
5583.3
5581.77
5580.19
5578.55
5576.86
5575.11
5573.3
5571.43
5569.5
5567.51
5565.48
5563.39
5561.27
5559.12
5556.94
5554.74
5552.52
5550.26
5547.99
5545.69
5543.37
5541.04
5538.69
5536.34
5533.99
5531.66
5529.33
5527.02
5524.73
5522.47
5520.23
5518.03
5515.85
5513.71
5511.59
5509.5
5507.43
5505.37
5503.32
5501.27
5499.22
5497.16
5495.08
5492.98
5490.85
5488.68
5486.48
5484.23
5481.94
5479.61
5477.25
5474.85
5472.42
5469.98
5467.51
5465.02
5462.52
5460.01
5457.48
5454.93
5452.37
5449.79
5447.21
5444.62
5442.02
5439.42
5436.82
5434.23
5431.63
5429.04
5426.46
5423.87
5421.28
5418.69
5416.09
5413.49
5410.88
5408.25
5405.62
5402.96
5400.3
5397.61
5394.9
5392.17
5389.41
5386.63
5383.83
5381
5378.13
5375.24
5372.32
5369.37
5366.39
5363.39
5360.36
5357.3
5354.22
5351.14
5348.09
5345.12
5342.43
5340.47
5336.81
5324
5306.77
5291.86
5280.36
5273.01
5269.04
5266.31
5265.05
5263.46
5223.06
5167.06
5118.2
5073.71
5033.67
5000.99
4983.44
4980.13
4979.73
4977.17
4968.71
4962.89
4964.69
4966.38
4967.35
4967.62
4967.47
4967.14
4966.79
4966.5
4966.35
5598.14
5597.99
5597.69
5597.25
5596.69
5596.02
5595.26
5594.41
5593.49
5592.51
5591.47
5590.38
5589.23
5588.04
5586.81
5585.52
5584.18
5582.79
5581.34
5579.83
5578.26
5576.63
5574.92
5573.15
5571.3
5569.38
5567.4
5565.35
5563.26
5561.12
5558.96
5556.77
5554.56
5552.33
5550.07
5547.78
5545.47
5543.12
5540.76
5538.39
5536.01
5533.63
5531.27
5528.92
5526.59
5524.28
5522.01
5519.77
5517.57
5515.4
5513.27
5511.18
5509.12
5507.08
5505.06
5503.05
5501.04
5499.03
5497.01
5494.97
5492.9
5490.8
5488.66
5486.47
5484.24
5481.96
5479.62
5477.25
5474.83
5472.39
5469.93
5467.45
5464.95
5462.45
5459.93
5457.39
5454.83
5452.26
5449.68
5447.08
5444.48
5441.87
5439.26
5436.66
5434.07
5431.48
5428.9
5426.32
5423.75
5421.19
5418.62
5416.05
5413.47
5410.89
5408.3
5405.69
5403.08
5400.45
5397.81
5395.15
5392.48
5389.78
5387.07
5384.34
5381.59
5378.83
5376.05
5373.25
5370.45
5367.64
5364.83
5362.03
5359.25
5356.5
5353.82
5351.23
5348.79
5346.61
5344.93
5343.68
5328.43
5306.84
5291.54
5277.74
5267.5
5259.23
5251.42
5241.97
5225.2
5180.49
5132.36
5084.2
5035.91
4987.05
4940.55
4923.81
4937.96
4948.29
4953.53
4952.7
4953.76
4956.75
4957.54
4958.24
4958.63
4958.75
4958.69
4958.56
4958.44
4958.36
5595.56
5595.44
5595.21
5594.87
5594.43
5593.9
5593.28
5592.59
5591.83
5591
5590.11
5589.17
5588.16
5587.1
5585.99
5584.81
5583.58
5582.28
5580.92
5579.49
5577.99
5576.42
5574.76
5573.02
5571.2
5569.29
5567.3
5565.24
5563.13
5560.97
5558.79
5556.59
5554.38
5552.14
5549.87
5547.57
5545.24
5542.87
5540.47
5538.06
5535.64
5533.23
5530.83
5528.45
5526.1
5523.78
5521.49
5519.24
5517.04
5514.89
5512.78
5510.71
5508.68
5506.68
5504.71
5502.75
5500.79
5498.83
5496.86
5494.86
5492.83
5490.77
5488.66
5486.5
5484.28
5481.99
5479.65
5477.26
5474.82
5472.36
5469.87
5467.38
5464.88
5462.36
5459.84
5457.29
5454.73
5452.15
5449.55
5446.94
5444.32
5441.7
5439.08
5436.47
5433.88
5431.29
5428.72
5426.17
5423.62
5421.07
5418.53
5415.98
5413.44
5410.89
5408.33
5405.76
5403.19
5400.6
5398.01
5395.4
5392.78
5390.15
5387.51
5384.85
5382.19
5379.52
5376.84
5374.17
5371.51
5368.86
5366.24
5363.66
5361.14
5358.7
5356.37
5354.18
5352.16
5350.23
5347.79
5347.43
5334.21
5310.09
5289.7
5271.56
5255.39
5240.06
5224.01
5204.95
5179.11
5141.44
5097.7
5050.33
4998.68
4938.05
4887.8
4877.7
4899.63
4921.93
4936.23
4942.62
4945.25
4948.12
4948.76
4949.42
4949.9
4950.17
4950.29
4950.32
4950.3
4950.28
5593.01
5592.93
5592.76
5592.51
5592.18
5591.78
5591.31
5590.77
5590.17
5589.5
5588.76
5587.96
5587.1
5586.17
5585.18
5584.12
5582.99
5581.8
5580.53
5579.19
5577.76
5576.25
5574.65
5572.95
5571.15
5569.24
5567.24
5565.15
5563
5560.81
5558.61
5556.4
5554.18
5551.95
5549.68
5547.37
5545.01
5542.6
5540.16
5537.7
5535.23
5532.78
5530.34
5527.94
5525.56
5523.21
5520.9
5518.65
5516.44
5514.29
5512.21
5510.17
5508.19
5506.24
5504.32
5502.41
5500.52
5498.61
5496.7
5494.76
5492.78
5490.76
5488.69
5486.56
5484.35
5482.07
5479.71
5477.28
5474.81
5472.31
5469.81
5467.3
5464.79
5462.27
5459.74
5457.19
5454.62
5452.03
5449.41
5446.78
5444.14
5441.5
5438.87
5436.25
5433.65
5431.08
5428.52
5425.98
5423.45
5420.93
5418.42
5415.9
5413.39
5410.87
5408.35
5405.82
5403.29
5400.75
5398.2
5395.64
5393.08
5390.51
5387.93
5385.35
5382.77
5380.19
5377.62
5375.06
5372.53
5370.04
5367.59
5365.22
5362.93
5360.77
5358.75
5356.95
5355.42
5354.32
5352.03
5350.7
5336.13
5309.67
5285.62
5263.42
5242.42
5221.6
5199.64
5174.77
5144.93
5108.45
5066.69
5020.72
4970.44
4914.34
4878.78
4874.23
4882.06
4903.58
4923.05
4933.27
4934.63
4939.01
4939.93
4940.75
4941.34
4941.74
4941.97
4942.09
4942.14
4942.16
5590.48
5590.43
5590.32
5590.16
5589.94
5589.67
5589.34
5588.96
5588.51
5587.99
5587.41
5586.76
5586.04
5585.25
5584.38
5583.44
5582.43
5581.34
5580.17
5578.92
5577.57
5576.13
5574.59
5572.94
5571.16
5569.26
5567.23
5565.09
5562.87
5560.63
5558.39
5556.18
5553.97
5551.76
5549.5
5547.18
5544.8
5542.35
5539.85
5537.32
5534.79
5532.28
5529.81
5527.36
5524.95
5522.58
5520.24
5517.96
5515.75
5513.62
5511.56
5509.56
5507.63
5505.74
5503.89
5502.05
5500.22
5498.39
5496.54
5494.66
5492.75
5490.78
5488.76
5486.66
5484.48
5482.19
5479.81
5477.34
5474.81
5472.26
5469.72
5467.19
5464.68
5462.17
5459.64
5457.09
5454.51
5451.9
5449.27
5446.61
5443.94
5441.27
5438.62
5435.98
5433.38
5430.81
5428.28
5425.76
5423.26
5420.77
5418.28
5415.8
5413.32
5410.84
5408.35
5405.86
5403.37
5400.87
5398.37
5395.87
5393.36
5390.85
5388.34
5385.83
5383.32
5380.83
5378.35
5375.9
5373.5
5371.14
5368.86
5366.66
5364.58
5362.65
5360.91
5359.4
5358.22
5357.49
5356.23
5353.6
5336.5
5306.88
5279.7
5254.09
5229.26
5204.3
5178.15
5149.59
5117.38
5080.73
5039.89
4995.41
4948.03
4899.72
4873.23
4870.61
4869.57
4887.3
4912.22
4925.06
4925.27
4929.34
4931.19
4932.27
4932.97
4933.44
4933.73
4933.91
4934
4934.04
5587.93
5587.91
5587.86
5587.79
5587.68
5587.55
5587.37
5587.14
5586.85
5586.5
5586.08
5585.58
5585
5584.35
5583.61
5582.8
5581.9
5580.92
5579.85
5578.7
5577.44
5576.08
5574.61
5573.01
5571.27
5569.37
5567.3
5565.06
5562.74
5560.4
5558.13
5555.92
5553.75
5551.57
5549.35
5547.04
5544.62
5542.11
5539.53
5536.91
5534.29
5531.72
5529.2
5526.73
5524.28
5521.87
5519.5
5517.19
5514.97
5512.84
5510.81
5508.87
5507
5505.19
5503.41
5501.65
5499.9
5498.15
5496.38
5494.58
5492.74
5490.84
5488.88
5486.83
5484.68
5482.39
5479.97
5477.42
5474.8
5472.18
5469.59
5467.05
5464.55
5462.06
5459.55
5457
5454.41
5451.79
5449.12
5446.43
5443.72
5441.01
5438.32
5435.67
5433.06
5430.5
5427.99
5425.5
5423.03
5420.58
5418.13
5415.68
5413.23
5410.78
5408.33
5405.88
5403.44
5400.99
5398.53
5396.08
5393.63
5391.18
5388.73
5386.28
5383.85
5381.43
5379.04
5376.69
5374.38
5372.15
5370
5367.97
5366.07
5364.33
5362.79
5361.51
5360.54
5359.98
5359.26
5355.28
5333.79
5301.66
5272.2
5243.97
5216.22
5188.19
5159.09
5128.04
5094.27
5057.21
5016.74
4973
4926.56
4883.77
4867.1
4866.93
4866.32
4879.57
4904.2
4917.86
4920.34
4921.88
4923.19
4924.15
4924.82
4925.29
4925.6
4925.79
4925.9
4925.94
5585.33
5585.34
5585.36
5585.38
5585.4
5585.4
5585.38
5585.32
5585.21
5585.03
5584.77
5584.43
5584
5583.48
5582.88
5582.19
5581.41
5580.55
5579.59
5578.54
5577.38
5576.11
5574.72
5573.19
5571.5
5569.61
5567.51
5565.1
5562.59
5560.08
5557.78
5555.59
5553.49
5551.4
5549.25
5546.97
5544.5
5541.91
5539.22
5536.47
5533.73
5531.08
5528.53
5526.03
5523.55
5521.09
5518.66
5516.3
5514.05
5511.94
5509.95
5508.08
5506.29
5504.57
5502.88
5501.22
5499.57
5497.9
5496.22
5494.51
5492.75
5490.95
5489.07
5487.09
5484.98
5482.71
5480.23
5477.55
5474.78
5472.03
5469.39
5466.85
5464.39
5461.94
5459.47
5456.93
5454.33
5451.68
5448.98
5446.25
5443.48
5440.71
5437.96
5435.28
5432.67
5430.13
5427.65
5425.2
5422.78
5420.36
5417.95
5415.54
5413.12
5410.71
5408.3
5405.89
5403.48
5401.08
5398.67
5396.27
5393.87
5391.48
5389.09
5386.71
5384.34
5381.99
5379.67
5377.4
5375.18
5373.05
5371.02
5369.12
5367.36
5365.78
5364.4
5363.27
5362.43
5361.94
5361.53
5350.64
5323.96
5293.8
5263.45
5233.39
5203.45
5173.16
5141.96
5109.24
5074.43
5037.09
4996.88
4953.29
4904.89
4870
4864.1
4863.81
4864.2
4873.33
4896.83
4910.7
4913.86
4914.63
4915.52
4916.28
4916.86
4917.28
4917.55
4917.73
4917.83
4917.87
5582.66
5582.71
5582.79
5582.91
5583.06
5583.22
5583.38
5583.51
5583.58
5583.58
5583.49
5583.31
5583.03
5582.66
5582.19
5581.63
5580.97
5580.22
5579.38
5578.44
5577.39
5576.23
5574.94
5573.49
5571.88
5570.03
5567.99
5565.19
5562.41
5559.51
5557.28
5555.15
5553.18
5551.26
5549.27
5547.06
5544.49
5541.77
5538.94
5536
5533.03
5530.32
5527.78
5525.29
5522.78
5520.25
5517.72
5515.27
5512.98
5510.88
5508.96
5507.17
5505.49
5503.88
5502.31
5500.76
5499.21
5497.65
5496.07
5494.46
5492.8
5491.09
5489.32
5487.45
5485.44
5483.21
5480.67
5477.74
5474.72
5471.75
5469.08
5466.56
5464.18
5461.83
5459.43
5456.9
5454.28
5451.6
5448.86
5446.07
5443.23
5440.37
5437.52
5434.8
5432.19
5429.68
5427.25
5424.86
5422.49
5420.12
5417.75
5415.37
5412.99
5410.61
5408.24
5405.87
5403.5
5401.15
5398.79
5396.44
5394.09
5391.75
5389.42
5387.09
5384.78
5382.49
5380.23
5378.02
5375.88
5373.83
5371.89
5370.09
5368.45
5366.99
5365.74
5364.71
5363.93
5363.4
5363.04
5347.92
5317.63
5286.15
5254.39
5222.71
5191.02
5159.04
5126.36
5092.52
5057.13
5019.84
4980.38
4938.4
4893.17
4865.61
4862.24
4861.9
4862.65
4872
4893.15
4903.06
4906.64
4907.25
4907.95
4908.57
4909.04
4909.38
4909.59
4909.73
4909.8
4909.83
5579.89
5579.97
5580.12
5580.36
5580.65
5581
5581.35
5581.69
5581.97
5582.16
5582.26
5582.25
5582.12
5581.89
5581.55
5581.12
5580.58
5579.96
5579.23
5578.41
5577.49
5576.45
5575.27
5573.91
5572.46
5570.59
5569.21
5566.03
5561.47
5558.24
5556.65
5554.52
5552.8
5551.17
5549.48
5547.46
5544.6
5541.72
5538.73
5535.54
5532.03
5529.36
5526.94
5524.53
5522.01
5519.39
5516.69
5514.04
5511.69
5509.62
5507.8
5506.14
5504.59
5503.12
5501.69
5500.27
5498.85
5497.4
5495.93
5494.42
5492.87
5491.29
5489.65
5487.93
5486.08
5484
5481.48
5477.98
5474.6
5471.16
5468.57
5466.13
5463.9
5461.75
5459.5
5456.94
5454.27
5451.55
5448.76
5445.91
5442.99
5439.97
5436.94
5434.18
5431.58
5429.13
5426.78
5424.48
5422.18
5419.87
5417.54
5415.19
5412.84
5410.49
5408.15
5405.82
5403.5
5401.19
5398.89
5396.59
5394.29
5392
5389.72
5387.44
5385.19
5382.94
5380.72
5378.56
5376.46
5374.47
5372.6
5370.89
5369.34
5367.98
5366.82
5365.89
5365.13
5364.33
5363.97
5346.36
5312.51
5278.77
5245.27
5212.02
5178.9
5145.63
5111.9
5077.36
5041.73
5004.76
4966.39
4926.78
4886.4
4863.93
4861.53
4861.63
4862.36
4865.29
4883.01
4894.43
4898.94
4899.74
4900.44
4900.98
4901.34
4901.57
4901.7
4901.76
4901.79
4901.8
5576.97
5577.09
5577.33
5577.68
5578.14
5578.7
5579.29
5579.88
5580.39
5580.8
5581.09
5581.25
5581.27
5581.18
5580.98
5580.67
5580.25
5579.75
5579.15
5578.45
5577.66
5576.78
5575.74
5574.4
5573.43
5572.23
5570.27
5565.55
5560.92
5557.81
5555.34
5553.47
5552.28
5551.13
5549.97
5548.7
5546.51
5543.14
5538.06
5533.46
5530.17
5528.1
5526.08
5523.84
5521.33
5518.56
5515.57
5512.5
5510.07
5508.11
5506.44
5504.96
5503.6
5502.3
5501.03
5499.77
5498.48
5497.16
5495.8
5494.4
5492.97
5491.51
5490.03
5488.52
5486.94
5485.19
5483.23
5479.26
5473.69
5469.71
5467.88
5465.45
5463.53
5461.76
5459.84
5457.08
5454.3
5451.53
5448.72
5445.82
5442.8
5439.58
5436.07
5433.38
5430.79
5428.46
5426.25
5424.07
5421.85
5419.61
5417.32
5415
5412.66
5410.33
5408.02
5405.74
5403.47
5401.21
5398.96
5396.7
5394.45
5392.21
5389.98
5387.76
5385.55
5383.34
5381.15
5378.99
5376.92
5374.96
5373.14
5371.49
5370.01
5368.73
5367.67
5366.85
5366.34
5365.55
5364.51
5344.68
5307.34
5271.16
5235.88
5201.22
5166.91
5132.68
5098.24
5063.31
5027.65
4991.08
4953.64
4915.9
4880.47
4863.1
4861.34
4861.38
4861.87
4863.84
4878.39
4887.38
4890.82
4892.3
4893.09
4893.53
4893.76
4893.85
4893.85
4893.82
4893.78
4893.75
5573.88
5574.04
5574.35
5574.83
5575.49
5576.3
5577.2
5578.09
5578.88
5579.52
5580.01
5580.33
5580.51
5580.55
5580.47
5580.28
5579.98
5579.6
5579.12
5578.56
5577.9
5577.21
5576.47
5575.54
5574.37
5570.58
5566.25
5561.8
5558.51
5556.01
5554.4
5552.71
5551.71
5551.05
5550.57
5549.97
5546.88
5541.97
5536.68
5532.08
5528.65
5526.78
5525.41
5523.38
5520.88
5517.94
5514.48
5510.3
5507.96
5506.26
5504.87
5503.65
5502.51
5501.43
5500.35
5499.26
5498.12
5496.93
5495.68
5494.38
5493.06
5491.73
5490.42
5489.16
5487.94
5486.58
5485.13
5480.71
5473.1
5468.9
5466.32
5464.24
5462.98
5461.9
5461.01
5459.33
5455.85
5451.28
5449.2
5445.97
5441.75
5437.37
5434.36
5432.46
5429.71
5427.66
5425.68
5423.66
5421.55
5419.36
5417.11
5414.8
5412.46
5410.13
5407.85
5405.63
5403.41
5401.21
5399
5396.79
5394.59
5392.4
5390.22
5388.05
5385.89
5383.71
5381.5
5379.33
5377.24
5375.27
5373.49
5371.89
5370.47
5369.24
5368.23
5367.5
5367.08
5366.55
5364.75
5341.71
5300.99
5262.66
5225.87
5190.05
5154.85
5119.94
5085.07
5049.99
5014.48
4978.29
4941.18
4902.74
4871.87
4861.67
4861.1
4861.13
4861.15
4862.54
4875.66
4883.38
4884.62
4885.54
4886.06
4886.28
4886.29
4886.18
4886.02
4885.86
4885.73
4885.66
5570.59
5570.77
5571.15
5571.76
5572.63
5573.76
5575.06
5576.35
5577.46
5578.36
5579.04
5579.53
5579.84
5580
5580.03
5579.95
5579.77
5579.51
5579.16
5578.71
5578.12
5577.67
5577.14
5573.51
5568.82
5563.48
5559.42
5556.11
5553.76
5552.33
5551.94
5552.19
5551.29
5550.78
5550.66
5550.28
5546.19
5539.74
5534.06
5529.4
5526.36
5524.85
5524.65
5523.09
5520.04
5515.39
5510.18
5506.22
5505.16
5504.09
5503.11
5502.21
5501.35
5500.52
5499.66
5498.76
5497.79
5496.73
5495.58
5494.37
5493.13
5491.9
5490.74
5489.75
5489.05
5488.3
5485.04
5477.46
5470.59
5466
5463.73
5462.04
5462.25
5461.82
5461.36
5459.91
5455.97
5449.56
5446.24
5443.48
5440
5436.74
5433.34
5430.23
5427.91
5426.75
5425.15
5423.31
5421.3
5419.17
5416.94
5414.62
5412.24
5409.84
5407.62
5405.47
5403.33
5401.18
5399.02
5396.86
5394.7
5392.55
5390.42
5388.32
5386.22
5384.08
5381.8
5379.57
5377.41
5375.38
5373.64
5372.09
5370.71
5369.49
5368.5
5367.79
5367.4
5366.94
5364.27
5335.58
5292.26
5252.63
5214.88
5178.29
5142.48
5107.16
5072.11
5037.12
5001.97
4966.42
4930.04
4892.01
4866.35
4861.09
4860.82
4860.89
4860.98
4861.71
4871.65
4878.19
4878.71
4879.15
4879.3
4879.2
4878.92
4878.55
4878.17
4877.84
4877.6
4877.47
5567.05
5567.25
5567.67
5568.38
5569.46
5570.99
5572.9
5574.73
5576.21
5577.36
5578.23
5578.85
5579.28
5579.55
5579.68
5579.7
5579.62
5579.47
5579.25
5578.98
5578.62
5577.4
5572.07
5564.84
5559.55
5555.16
5551.84
5549.48
5548.08
5547.6
5548.14
5549.87
5550.6
5550.55
5550.17
5549.52
5544.39
5536.75
5530.42
5524.81
5521.6
5522.64
5523.15
5520.51
5514.27
5507.25
5504.31
5502.81
5502.37
5501.81
5501.25
5500.7
5500.15
5499.59
5498.99
5498.32
5497.53
5496.61
5495.53
5494.36
5493.17
5491.98
5490.88
5490.01
5489.47
5489.14
5484.03
5474.03
5465.6
5459.29
5455.16
5454.26
5457.03
5460.14
5460.14
5456.84
5451.06
5444.48
5441.82
5439.87
5437.14
5434.78
5431.6
5428.84
5427.16
5426.25
5424.84
5423.1
5421.15
5419.05
5416.82
5414.48
5412
5409.35
5407.29
5405.29
5403.24
5401.14
5399.02
5396.89
5394.77
5392.66
5390.58
5388.55
5386.57
5384.56
5382.04
5379.7
5377.43
5375.18
5373.57
5372.12
5370.75
5369.49
5368.48
5367.73
5367.32
5366.93
5354.33
5319.21
5279.82
5240.73
5202.72
5165.74
5129.61
5094.12
5059.1
5024.39
4989.88
4955.37
4920.57
4884.93
4863.38
4860.34
4860.46
4860.62
4860.83
4862.02
4866.64
4872.44
4872.88
4873.01
4872.79
4872.29
4871.62
4870.91
4870.25
4869.72
4869.34
4869.15
5563.27
5563.45
5563.85
5564.57
5565.79
5567.78
5570.79
5573.39
5575.26
5576.61
5577.61
5578.34
5578.86
5579.2
5579.41
5579.5
5579.51
5579.46
5579.36
5578.89
5574.45
5568.64
5560.92
5554.33
5549.39
5545.77
5543.31
5541.89
5541.47
5541.85
5543.15
5545.89
5548.97
5547.77
5547.99
5547.81
5540.85
5532.44
5526.06
5520.93
5518.93
5520.79
5521.32
5515.24
5505.93
5499.82
5499.84
5499.72
5499.65
5499.52
5499.35
5499.16
5498.94
5498.69
5498.38
5497.95
5497.37
5496.63
5495.53
5494.37
5493.17
5491.96
5490.76
5489.93
5489.35
5488.78
5482.34
5469.1
5458.51
5450.4
5444.33
5441.83
5443.5
5447.39
5452.18
5449.82
5444.9
5441.41
5439.86
5437.88
5435.65
5434.2
5431.85
5429.3
5427.67
5426.1
5424.57
5422.95
5420.89
5418.71
5416.61
5414.2
5411.04
5408.26
5406.9
5405.12
5403.16
5401.11
5399.02
5396.91
5394.79
5392.71
5390.67
5388.72
5386.93
5385.52
5382.5
5380.32
5376.99
5374.31
5373.31
5372.04
5370.66
5369.2
5368.17
5367.31
5366.83
5366.26
5346.52
5307.11
5267.1
5227.76
5189.52
5152.36
5116.11
5080.61
5045.76
5011.48
4977.77
4944.61
4911.93
4879.37
4861.21
4859.59
4859.96
4860.3
4860.77
4861.68
4863.33
4866.45
4867.32
4867.2
4866.53
4865.51
4864.34
4863.2
4862.19
4861.41
4860.87
4860.61
5559.26
5559.38
5559.67
5560.22
5561.28
5563.5
5569.02
5572.76
5574.78
5576.18
5577.23
5578.02
5578.56
5578.96
5579.21
5579.36
5579.45
5579.45
5575.93
5570.49
5562.76
5555.83
5548.66
5542.2
5537.9
5535.24
5533.73
5533.3
5534.06
5535.19
5536.73
5538.81
5541.52
5540.5
5541.09
5539.94
5532.78
5526.1
5520.46
5515.86
5514.1
5515.23
5514.08
5508.05
5500.48
5496.14
5495.66
5496.68
5496.96
5497.23
5497.45
5497.62
5497.75
5497.83
5497.85
5497.72
5497.36
5496.96
5496.08
5494.62
5492.99
5491.48
5490.24
5489.57
5488.65
5486.64
5479.05
5461.65
5448.94
5439.48
5432.31
5429.38
5429.23
5427.27
5436.42
5445.51
5441.84
5440.07
5439.93
5437.85
5435.44
5433.63
5432.14
5430.58
5424.02
5418.53
5415.52
5413.06
5410.8
5408.8
5406.83
5404.84
5403.27
5402.56
5401.34
5399.73
5397.98
5396.27
5395.02
5395.44