/*--------------------------------*- C++ -*----------------------------------*\
| =========                 |                                                 |
| \\      /  F ield         | OpenFOAM: The Open Source CFD Toolbox           |
|  \\    /   O peration     | Version:  2.1.0                                 |
|   \\  /    A nd           | Web:      www.OpenFOAM.org                      |
|    \\/     M anipulation  |                                                 |
\*---------------------------------------------------------------------------*/
FoamFile
{
    version     2.0;
    format      ascii;
    class       volScalarField;
    location    "64240";
    object      so;
}
// * * * * * * * * * * * * * * * * * * * * * * * * * * * * * * * * * * * * * //

dimensions      [0 0 0 0 0 0 0];

internalField   nonuniform List<scalar> 
15000
(
0.2
0.200009
0.200019
0.200023
0.200077
0.200546
0.202442
0.206778
0.213599
0.222136
0.231515
0.241124
0.250619
0.259818
0.268641
0.277058
0.28506
0.292657
0.299862
0.306696
0.313177
0.319327
0.325167
0.330717
0.335998
0.341031
0.345832
0.35042
0.354812
0.359022
0.363067
0.366958
0.370709
0.37433
0.377833
0.381227
0.384522
0.387727
0.390848
0.393893
0.396869
0.399783
0.402641
0.405447
0.408208
0.410927
0.413606
0.41625
0.418859
0.421435
0.423979
0.426491
0.428972
0.431421
0.433837
0.43622
0.438569
0.440883
0.443161
0.445402
0.447606
0.449772
0.4519
0.45399
0.456042
0.458057
0.460036
0.46198
0.463891
0.465769
0.467616
0.469433
0.471221
0.472982
0.474718
0.476428
0.478115
0.47978
0.481422
0.483045
0.484647
0.48623
0.487795
0.489342
0.490871
0.492383
0.493877
0.495354
0.496814
0.498255
0.499679
0.501083
0.502468
0.503833
0.505178
0.5065
0.507799
0.509075
0.510326
0.511551
0.512749
0.513918
0.515058
0.516168
0.517246
0.518292
0.519304
0.520283
0.521226
0.522135
0.523009
0.523848
0.524654
0.525427
0.52617
0.526882
0.527567
0.528224
0.528856
0.529467
0.53006
0.530644
0.531229
0.531828
0.532457
0.533132
0.533859
0.534617
0.535339
0.535938
0.536398
0.536737
0.536986
0.537236
0.537487
0.537745
0.53801
0.538286
0.538573
0.538876
0.539199
0.539549
0.539937
0.540378
0.540894
0.541518
0.542305
0.543363
0.544959
0.548152
0.200009
0.200025
0.200033
0.200033
0.200133
0.200845
0.203268
0.208219
0.215481
0.224222
0.233635
0.243189
0.252587
0.261679
0.270396
0.278713
0.286627
0.294143
0.301278
0.308049
0.314474
0.320574
0.326369
0.331878
0.337122
0.34212
0.346889
0.351447
0.355811
0.359994
0.364013
0.367879
0.371606
0.375205
0.378686
0.38206
0.385334
0.388519
0.391621
0.394648
0.397606
0.400502
0.403343
0.406134
0.408879
0.411584
0.41425
0.416881
0.419478
0.422044
0.424578
0.427081
0.429553
0.431995
0.434405
0.436783
0.439128
0.441438
0.443713
0.445952
0.448153
0.450316
0.452442
0.454529
0.456579
0.458592
0.460569
0.462512
0.46442
0.466296
0.468141
0.469957
0.471743
0.473502
0.475234
0.476942
0.478627
0.480289
0.481929
0.483549
0.485149
0.48673
0.488293
0.489839
0.491367
0.492878
0.494372
0.495849
0.49731
0.498753
0.500178
0.501585
0.502974
0.504343
0.505692
0.507021
0.508328
0.509612
0.510873
0.51211
0.513323
0.514509
0.515669
0.516802
0.517908
0.518985
0.520034
0.521056
0.52205
0.523018
0.52396
0.52488
0.52578
0.526662
0.527528
0.528382
0.529224
0.530054
0.530873
0.531683
0.532493
0.53332
0.534195
0.535159
0.536266
0.537578
0.539139
0.540908
0.542628
0.543884
0.544705
0.545191
0.545435
0.545589
0.545658
0.54566
0.545633
0.545591
0.545525
0.545416
0.545255
0.545057
0.544846
0.544659
0.544538
0.544529
0.544696
0.545149
0.546153
0.548765
0.200019
0.200034
0.200041
0.200061
0.200326
0.201579
0.20488
0.210653
0.218403
0.227305
0.236679
0.246099
0.255331
0.264255
0.272816
0.28099
0.288777
0.296182
0.303218
0.3099
0.316247
0.322276
0.328006
0.333457
0.338646
0.343592
0.348314
0.352826
0.357147
0.36129
0.365269
0.369098
0.372789
0.376353
0.379801
0.383142
0.386385
0.389538
0.392609
0.395606
0.398536
0.401406
0.404221
0.406988
0.409711
0.412393
0.41504
0.417652
0.420232
0.422782
0.425302
0.427793
0.430255
0.432687
0.43509
0.437461
0.4398
0.442106
0.444376
0.446611
0.448809
0.45097
0.453093
0.455177
0.457225
0.459235
0.461209
0.463148
0.465053
0.466926
0.468767
0.470577
0.472359
0.474114
0.475843
0.477546
0.479226
0.480884
0.48252
0.484136
0.485732
0.48731
0.48887
0.490412
0.491938
0.493448
0.494941
0.496418
0.497878
0.499322
0.50075
0.50216
0.503552
0.504927
0.506283
0.507619
0.508936
0.510233
0.511508
0.512762
0.513994
0.515204
0.516391
0.517555
0.518696
0.519815
0.520914
0.521993
0.523054
0.524101
0.525137
0.526166
0.527194
0.528227
0.529272
0.530335
0.531418
0.532522
0.533642
0.534773
0.535922
0.537121
0.53843
0.539936
0.54176
0.544049
0.546937
0.550442
0.55388
0.555844
0.556949
0.557526
0.557752
0.557723
0.557438
0.556929
0.556354
0.555763
0.55511
0.554326
0.553377
0.552297
0.551148
0.550009
0.548962
0.548076
0.547428
0.54713
0.547441
0.549415
0.200023
0.200034
0.20006
0.200207
0.200938
0.203153
0.207599
0.21422
0.222365
0.231317
0.240559
0.24977
0.258775
0.267481
0.275841
0.283837
0.291466
0.298733
0.305646
0.312219
0.318468
0.324408
0.330058
0.335433
0.340553
0.345433
0.350093
0.354546
0.35881
0.362899
0.366827
0.370606
0.374248
0.377765
0.381168
0.384465
0.387665
0.390776
0.393807
0.396765
0.399657
0.40249
0.40527
0.408004
0.410696
0.41335
0.415969
0.418557
0.421114
0.423644
0.426146
0.428622
0.43107
0.433491
0.435884
0.438247
0.440579
0.442879
0.445146
0.447377
0.449572
0.451729
0.453849
0.455931
0.457975
0.459981
0.461951
0.463885
0.465785
0.467653
0.469489
0.471294
0.47307
0.474819
0.476541
0.478238
0.479912
0.481563
0.483193
0.484804
0.486395
0.487967
0.489523
0.491062
0.492585
0.494092
0.495584
0.497061
0.498522
0.499968
0.501397
0.50281
0.504208
0.505589
0.506953
0.5083
0.509629
0.51094
0.512233
0.513508
0.514764
0.516001
0.517221
0.518422
0.519608
0.520779
0.521938
0.523087
0.524231
0.525376
0.526527
0.527695
0.528889
0.530124
0.531414
0.532776
0.534224
0.535763
0.537376
0.53901
0.540652
0.542348
0.544197
0.54635
0.549011
0.552442
0.556927
0.562792
0.56846
0.570293
0.57124
0.571729
0.571924
0.571721
0.571033
0.569816
0.568578
0.567426
0.566211
0.564736
0.562895
0.560768
0.558473
0.556155
0.553962
0.55201
0.550396
0.549237
0.548786
0.55009
0.200072
0.200126
0.200307
0.20091
0.202599
0.206115
0.211696
0.218966
0.227302
0.236162
0.245174
0.25411
0.262838
0.271287
0.279417
0.287209
0.294657
0.301765
0.308537
0.314985
0.321121
0.326958
0.332512
0.3378
0.342836
0.347638
0.352222
0.356603
0.360798
0.36482
0.368683
0.372401
0.375984
0.379443
0.382789
0.386031
0.389177
0.392236
0.395215
0.398123
0.400968
0.403755
0.406491
0.409183
0.411836
0.414453
0.417038
0.419595
0.422125
0.424629
0.427109
0.429566
0.431998
0.434405
0.436787
0.439141
0.441466
0.44376
0.446022
0.44825
0.450442
0.452597
0.454713
0.456791
0.458831
0.460833
0.462799
0.464728
0.466622
0.468482
0.47031
0.472107
0.473876
0.475617
0.477332
0.479021
0.480687
0.482331
0.483954
0.485557
0.487141
0.488707
0.490257
0.491791
0.49331
0.494814
0.496303
0.497779
0.49924
0.500686
0.502119
0.503536
0.504939
0.506328
0.507702
0.50906
0.510404
0.511733
0.513046
0.514345
0.515629
0.516899
0.518156
0.519402
0.520638
0.521869
0.523098
0.52433
0.525571
0.526832
0.528122
0.529458
0.53086
0.532353
0.533974
0.535763
0.537765
0.540011
0.542452
0.54484
0.547104
0.54933
0.551683
0.554386
0.557723
0.562057
0.567817
0.576095
0.583012
0.583275
0.583971
0.584282
0.584478
0.584308
0.583519
0.58156
0.5798
0.578456
0.5771
0.575305
0.572776
0.5697
0.566268
0.562688
0.55923
0.556102
0.553441
0.551371
0.550137
0.550773
0.200484
0.200763
0.201459
0.203003
0.205989
0.210753
0.217154
0.224749
0.233056
0.24169
0.250397
0.259012
0.267434
0.275603
0.283484
0.291055
0.29831
0.305246
0.311865
0.318176
0.324188
0.329911
0.33536
0.340548
0.34549
0.350201
0.354698
0.358996
0.36311
0.367053
0.370841
0.374485
0.377997
0.381388
0.384667
0.387843
0.390924
0.39392
0.396839
0.399687
0.402473
0.405204
0.407888
0.410529
0.413133
0.415705
0.418249
0.420767
0.423263
0.425737
0.428191
0.430625
0.433038
0.435429
0.437798
0.440142
0.44246
0.444749
0.447007
0.449232
0.451421
0.453573
0.455687
0.457762
0.459798
0.461795
0.463754
0.465676
0.467563
0.469415
0.471235
0.473023
0.474782
0.476513
0.478218
0.479897
0.481554
0.483188
0.484801
0.486395
0.487971
0.489529
0.491072
0.492599
0.494112
0.495612
0.497098
0.498572
0.500033
0.501481
0.502917
0.504338
0.505747
0.507145
0.508529
0.509902
0.511262
0.51261
0.513946
0.515272
0.516587
0.517893
0.519193
0.520488
0.521782
0.52308
0.524388
0.525713
0.527065
0.528457
0.529909
0.531445
0.533099
0.53492
0.536977
0.539363
0.542194
0.545592
0.549457
0.552829
0.555678
0.558251
0.560838
0.56373
0.567255
0.571803
0.577822
0.587624
0.591501
0.59946
0.606679
0.613694
0.617048
0.613239
0.603872
0.586048
0.584902
0.584437
0.583915
0.582846
0.58053
0.577267
0.573339
0.568795
0.564203
0.559974
0.556327
0.553397
0.551428
0.551444
0.202158
0.202937
0.204489
0.207175
0.211314
0.216915
0.223711
0.231331
0.239433
0.247754
0.256111
0.264383
0.272486
0.280366
0.28799
0.295335
0.302389
0.309147
0.315608
0.321776
0.327657
0.33326
0.338595
0.343676
0.348514
0.353126
0.357526
0.361729
0.36575
0.369605
0.373305
0.376865
0.380296
0.383607
0.386808
0.389909
0.392916
0.395839
0.398685
0.401462
0.40418
0.406845
0.409464
0.412045
0.414592
0.41711
0.419604
0.422076
0.424531
0.426969
0.429391
0.431798
0.43419
0.436563
0.438919
0.441252
0.443563
0.445847
0.448101
0.450324
0.452511
0.454662
0.456775
0.458847
0.460879
0.462871
0.464824
0.466738
0.468616
0.470457
0.472266
0.474043
0.47579
0.47751
0.479203
0.480872
0.482517
0.48414
0.485742
0.487324
0.488889
0.490437
0.491971
0.49349
0.494996
0.49649
0.497972
0.499443
0.500903
0.502353
0.503791
0.505218
0.506634
0.50804
0.509437
0.510824
0.512201
0.51357
0.514932
0.516286
0.517635
0.518982
0.520327
0.521677
0.523034
0.524405
0.525799
0.527227
0.528701
0.530243
0.531879
0.533647
0.535602
0.537827
0.540441
0.543621
0.547626
0.55284
0.559168
0.563425
0.566461
0.568941
0.571305
0.57388
0.576962
0.580862
0.5859
0.596118
0.622315
0.770553
0.797985
0.799946
0.788147
0.663953
0.665712
0.669943
0.660725
0.649843
0.630784
0.610623
0.58516
0.582272
0.578865
0.573696
0.568236
0.563184
0.558785
0.555174
0.552595
0.552084
0.206021
0.207413
0.209804
0.213377
0.218214
0.224178
0.231018
0.238455
0.24625
0.254214
0.262208
0.270135
0.277922
0.285518
0.292889
0.300011
0.306866
0.313447
0.31975
0.325774
0.331523
0.337002
0.342221
0.347189
0.351917
0.356422
0.360716
0.364814
0.368732
0.372486
0.376088
0.379553
0.382892
0.386114
0.389228
0.392243
0.395165
0.398004
0.400768
0.403464
0.406102
0.408689
0.411233
0.413741
0.416219
0.418673
0.421107
0.423526
0.425932
0.428327
0.430712
0.433088
0.435454
0.437808
0.440148
0.442472
0.444775
0.447055
0.449308
0.45153
0.453719
0.45587
0.457982
0.460053
0.462082
0.464068
0.466014
0.467919
0.469786
0.471616
0.473412
0.475176
0.476911
0.478617
0.480296
0.481951
0.483582
0.485192
0.48678
0.488349
0.489901
0.491437
0.492958
0.494467
0.495964
0.49745
0.498927
0.500394
0.501853
0.503302
0.504743
0.506176
0.507598
0.509014
0.510423
0.511825
0.513222
0.514614
0.516002
0.517388
0.518774
0.520162
0.521558
0.522965
0.52439
0.52584
0.527328
0.528867
0.530476
0.532183
0.534025
0.536059
0.538366
0.541069
0.544352
0.548504
0.554012
0.561826
0.572198
0.57637
0.578912
0.580825
0.582586
0.584457
0.586624
0.589287
0.592676
0.603917
0.637091
0.713422
0.790538
0.799597
0.799868
0.792406
0.790142
0.788578
0.783824
0.780466
0.670407
0.658795
0.61596
0.595927
0.580252
0.575401
0.570333
0.565278
0.560609
0.556602
0.553595
0.552679
0.212161
0.214028
0.216964
0.221004
0.2261
0.232089
0.238763
0.245911
0.253358
0.260958
0.2686
0.276197
0.283685
0.291012
0.298144
0.305052
0.311718
0.31813
0.32428
0.330165
0.335786
0.341144
0.346246
0.351101
0.355717
0.360108
0.364287
0.36827
0.372075
0.375717
0.379211
0.38257
0.385807
0.38893
0.391948
0.394867
0.397695
0.400439
0.403107
0.40571
0.408256
0.410752
0.413208
0.415631
0.418028
0.420405
0.422769
0.425123
0.427471
0.429815
0.432157
0.434497
0.436834
0.439166
0.44149
0.443803
0.446101
0.448379
0.450632
0.452856
0.455047
0.457202
0.459316
0.461387
0.463415
0.465397
0.467335
0.46923
0.471084
0.4729
0.47468
0.476429
0.478148
0.479838
0.481503
0.483142
0.484758
0.486351
0.487923
0.489476
0.491012
0.492533
0.49404
0.495535
0.497021
0.498497
0.499966
0.501428
0.502884
0.504333
0.505777
0.507214
0.508644
0.510069
0.51149
0.512909
0.514325
0.515741
0.517157
0.518576
0.520001
0.521435
0.522883
0.524352
0.525849
0.527384
0.528972
0.530632
0.532388
0.534277
0.536351
0.538684
0.541388
0.544628
0.548655
0.553867
0.561016
0.571883
0.587348
0.59044
0.592682
0.594045
0.595144
0.596065
0.596822
0.597715
0.598905
0.614577
0.664751
0.748677
0.794861
0.799773
0.799992
0.799791
0.799652
0.799503
0.799214
0.799107
0.782134
0.779042
0.746092
0.600979
0.580545
0.57607
0.571393
0.566552
0.561873
0.557691
0.554422
0.553225
0.219901
0.222025
0.225198
0.229374
0.234457
0.240291
0.246705
0.253535
0.260639
0.2679
0.275218
0.282516
0.289731
0.296814
0.303727
0.31044
0.316932
0.323189
0.329199
0.334956
0.340458
0.345703
0.350694
0.355438
0.359942
0.364216
0.368274
0.372134
0.375813
0.37933
0.382702
0.385945
0.38907
0.392085
0.394997
0.397811
0.400534
0.403173
0.405735
0.40823
0.410668
0.413059
0.415411
0.417733
0.420034
0.422322
0.424601
0.426877
0.429156
0.431439
0.43373
0.436028
0.438332
0.44064
0.442947
0.44525
0.447543
0.449821
0.452078
0.454308
0.456507
0.458668
0.460789
0.462863
0.46489
0.466869
0.468799
0.470683
0.472522
0.474322
0.476085
0.477816
0.479516
0.481189
0.482835
0.484457
0.486054
0.487629
0.489182
0.490716
0.492232
0.493734
0.495223
0.496702
0.498173
0.499637
0.501097
0.502552
0.504003
0.505451
0.506896
0.508338
0.509776
0.51121
0.512644
0.514079
0.515516
0.516956
0.518402
0.519856
0.521322
0.522804
0.524309
0.525843
0.527417
0.529043
0.530739
0.532529
0.534445
0.536535
0.538864
0.541528
0.544665
0.548477
0.553262
0.559497
0.568119
0.581474
0.598733
0.624168
0.643445
0.663376
0.695103
0.73703
0.748809
0.719967
0.649568
0.655033
0.714941
0.79128
0.799486
0.799978
0.799999
0.799994
0.799989
0.799981
0.79997
0.799967
0.799157
0.798905
0.794209
0.585448
0.580476
0.576434
0.571858
0.567306
0.562735
0.55851
0.555103
0.553727
0.228418
0.230637
0.233853
0.237988
0.242934
0.248547
0.254687
0.261216
0.268013
0.274975
0.282012
0.28905
0.296029
0.302899
0.309621
0.316165
0.322506
0.328628
0.334517
0.340164
0.345563
0.35071
0.355604
0.360246
0.364642
0.368799
0.372731
0.376456
0.379996
0.383374
0.386612
0.389726
0.392728
0.395626
0.398425
0.401126
0.403734
0.406255
0.408696
0.411067
0.41338
0.415646
0.417875
0.420079
0.422266
0.424444
0.426622
0.428805
0.431
0.433211
0.435441
0.437689
0.439955
0.442234
0.444524
0.446817
0.449108
0.451389
0.453654
0.455896
0.458107
0.460281
0.462413
0.464497
0.466537
0.468524
0.470453
0.472322
0.474143
0.475922
0.477663
0.479371
0.48105
0.482702
0.484328
0.485929
0.487506
0.489058
0.490589
0.492099
0.493591
0.495069
0.496535
0.497992
0.499444
0.500891
0.502337
0.503782
0.505226
0.506671
0.508116
0.509561
0.511007
0.51245
0.513896
0.515348
0.516806
0.518272
0.51975
0.521241
0.52275
0.524283
0.525847
0.527451
0.529107
0.53083
0.532643
0.534575
0.536667
0.538976
0.541584
0.544604
0.548195
0.552582
0.558096
0.56526
0.575195
0.590722
0.607243
0.660337
0.739665
0.797224
0.799962
0.799642
0.79405
0.791063
0.796206
0.770554
0.786707
0.798824
0.79994
0.799998
0.8
0.8
0.8
0.799999
0.799999
0.799999
0.799977
0.799976
0.749617
0.584914
0.580519
0.576724
0.572279
0.567813
0.563351
0.559141
0.555672
0.554195
0.237114
0.239339
0.242508
0.246535
0.251312
0.256711
0.262608
0.268883
0.275427
0.282145
0.288953
0.295778
0.302563
0.309258
0.315824
0.322229
0.328448
0.334463
0.340258
0.345821
0.351144
0.356218
0.361037
0.365597
0.369899
0.373945
0.377748
0.381328
0.384712
0.387931
0.391014
0.393983
0.396851
0.399625
0.402302
0.404883
0.407367
0.409756
0.412059
0.414285
0.41645
0.418567
0.42065
0.42271
0.424759
0.426806
0.42886
0.430929
0.433022
0.435145
0.4373
0.439488
0.441709
0.443957
0.446228
0.448512
0.450803
0.453093
0.455371
0.457631
0.459864
0.462059
0.464212
0.466333
0.4684
0.470404
0.472339
0.474203
0.476002
0.477754
0.479468
0.481149
0.482802
0.484429
0.486031
0.487608
0.489159
0.490685
0.492187
0.493668
0.495129
0.496574
0.498009
0.499438
0.500863
0.502287
0.503714
0.505144
0.506579
0.508018
0.509461
0.510908
0.512359
0.51381
0.515268
0.516736
0.518215
0.519708
0.521218
0.522748
0.524303
0.52589
0.527517
0.529195
0.530939
0.532769
0.53471
0.536799
0.539085
0.541635
0.544541
0.547929
0.551971
0.556904
0.563074
0.571055
0.582213
0.5999
0.61357
0.707714
0.797324
0.799964
0.8
0.799999
0.799924
0.799775
0.799815
0.798024
0.799005
0.799929
0.799997
0.8
0.8
0.8
0.8
0.8
0.8
0.8
0.8
0.796873
0.653919
0.585003
0.580688
0.57698
0.572661
0.568253
0.563823
0.559647
0.556163
0.554638
0.245637
0.247831
0.250927
0.254843
0.259472
0.264699
0.270411
0.276496
0.282853
0.289391
0.296028
0.302695
0.309335
0.315898
0.322347
0.328651
0.334784
0.340727
0.346465
0.351983
0.357268
0.362308
0.367091
0.371605
0.37584
0.379794
0.383471
0.386892
0.390095
0.393125
0.396026
0.398828
0.401549
0.404189
0.406742
0.409197
0.411546
0.413787
0.415928
0.417983
0.419968
0.421904
0.423808
0.425694
0.427574
0.429459
0.431359
0.433285
0.43525
0.437262
0.439325
0.44144
0.443607
0.445819
0.448068
0.450345
0.45264
0.454944
0.457244
0.459531
0.461795
0.464025
0.466241
0.468411
0.470521
0.472556
0.474505
0.476364
0.478136
0.479854
0.481531
0.483178
0.4848
0.486399
0.487975
0.489525
0.491049
0.492544
0.494012
0.495455
0.496877
0.498282
0.499676
0.501065
0.502455
0.503849
0.505251
0.506662
0.508082
0.509512
0.51095
0.512397
0.513853
0.515318
0.516786
0.518269
0.519769
0.521288
0.52283
0.5244
0.526004
0.527649
0.529345
0.531107
0.532951
0.534901
0.536987
0.539252
0.541751
0.544557
0.54777
0.551519
0.555978
0.561385
0.568099
0.576757
0.589117
0.609534
0.619841
0.756952
0.798069
0.799951
0.799999
0.8
0.799999
0.799996
0.799994
0.799929
0.799964
0.799997
0.8
0.8
0.8
0.8
0.8
0.8
0.8
0.799995
0.799665
0.780113
0.629229
0.585161
0.580879
0.577206
0.572974
0.568641
0.564256
0.560086
0.556602
0.555065
0.253793
0.25595
0.258986
0.262821
0.267352
0.272472
0.27807
0.284042
0.290287
0.296715
0.303247
0.309815
0.316362
0.322843
0.329221
0.335467
0.341558
0.347477
0.353206
0.358732
0.364038
0.369107
0.373919
0.378452
0.382757
0.386749
0.390315
0.393561
0.396539
0.399322
0.401984
0.404576
0.407119
0.409611
0.41203
0.41435
0.416546
0.41861
0.42055
0.422382
0.424134
0.425833
0.427505
0.429165
0.430827
0.432501
0.434201
0.435941
0.437738
0.439604
0.441547
0.44357
0.445669
0.447836
0.450061
0.452332
0.454635
0.456959
0.459292
0.46162
0.463931
0.466238
0.468531
0.470784
0.472977
0.475084
0.477077
0.478937
0.480671
0.482341
0.483967
0.485567
0.487149
0.488715
0.490261
0.491781
0.493272
0.494731
0.496156
0.497551
0.49892
0.500269
0.501606
0.50294
0.504281
0.505632
0.506999
0.508382
0.509781
0.511196
0.512625
0.514068
0.515525
0.516995
0.518471
0.519968
0.521489
0.523037
0.524617
0.526233
0.527894
0.529608
0.531387
0.533248
0.53521
0.537299
0.539551
0.542011
0.544736
0.547803
0.551309
0.555381
0.560186
0.565957
0.573055
0.582179
0.595522
0.618256
0.674932
0.770364
0.799079
0.799981
0.8
0.8
0.8
0.8
0.8
0.799998
0.799999
0.8
0.8
0.8
0.8
0.8
0.8
0.8
0.8
0.799987
0.799413
0.780594
0.612413
0.585188
0.581007
0.577383
0.573238
0.568976
0.564643
0.560503
0.557029
0.555486
0.261488
0.263617
0.266624
0.270427
0.274927
0.280016
0.285588
0.291533
0.29775
0.304147
0.310644
0.317176
0.323689
0.330139
0.336497
0.342737
0.348841
0.354794
0.360582
0.366193
0.37161
0.37681
0.381895
0.387091
0.392185
0.396963
0.40108
0.404042
0.40658
0.408836
0.410979
0.413114
0.415288
0.417493
0.419679
0.421772
0.42371
0.425468
0.42705
0.428482
0.42981
0.431089
0.43236
0.433643
0.434949
0.436287
0.43767
0.439119
0.440657
0.442303
0.444068
0.445954
0.447955
0.45006
0.45225
0.454512
0.456827
0.459179
0.461554
0.463938
0.466318
0.468739
0.471161
0.47357
0.475938
0.478219
0.480341
0.482234
0.483913
0.485504
0.487048
0.488574
0.490097
0.491618
0.493126
0.49461
0.496059
0.497469
0.498836
0.500163
0.501454
0.502718
0.503967
0.505215
0.506477
0.507761
0.509072
0.51041
0.511776
0.513166
0.514578
0.51601
0.517462
0.518934
0.520425
0.521932
0.523472
0.525051
0.526672
0.528342
0.530071
0.531868
0.533747
0.535726
0.537827
0.540077
0.542512
0.545175
0.548124
0.55143
0.555186
0.55951
0.564558
0.570553
0.577859
0.58722
0.601217
0.624616
0.710744
0.779271
0.799367
0.799987
0.8
0.8
0.8
0.8
0.8
0.8
0.8
0.8
0.8
0.8
0.8
0.8
0.8
0.8
0.8
0.799986
0.79959
0.791164
0.590218
0.584877
0.581039
0.57752
0.573474
0.569285
0.565008
0.560905
0.557453
0.555907
0.268674
0.270796
0.273815
0.277647
0.282195
0.287348
0.292991
0.29901
0.305294
0.311745
0.318284
0.324847
0.331386
0.337865
0.34426
0.350554
0.356738
0.362804
0.368745
0.374555
0.380223
0.385981
0.39225
0.398812
0.405734
0.412561
0.418789
0.42191
0.423671
0.42483
0.425867
0.427042
0.428484
0.430194
0.432049
0.433853
0.435418
0.436672
0.43761
0.438275
0.438762
0.439203
0.439687
0.440247
0.440887
0.441604
0.442408
0.443328
0.444401
0.445658
0.447115
0.448768
0.450604
0.452599
0.454729
0.456967
0.45929
0.461675
0.464106
0.466567
0.469075
0.471654
0.47429
0.476982
0.479712
0.482414
0.484901
0.486907
0.488494
0.489937
0.491324
0.492714
0.494135
0.495587
0.497048
0.498485
0.499879
0.50122
0.502503
0.503725
0.50489
0.50601
0.507104
0.508201
0.509324
0.510488
0.511701
0.512963
0.514268
0.515612
0.516989
0.518396
0.519831
0.521295
0.52279
0.524299
0.525857
0.527468
0.529138
0.530873
0.532684
0.534581
0.53658
0.538697
0.540956
0.543379
0.545999
0.548854
0.551996
0.555487
0.559415
0.563886
0.56905
0.575122
0.58247
0.591876
0.606296
0.629252
0.743556
0.794191
0.799818
0.799996
0.8
0.8
0.8
0.8
0.8
0.8
0.8
0.8
0.8
0.8
0.8
0.8
0.8
0.8
0.799999
0.799961
0.798744
0.770699
0.589554
0.584786
0.581135
0.577683
0.573719
0.569594
0.565369
0.561304
0.557876
0.556329
0.275342
0.277488
0.280568
0.284494
0.289159
0.294477
0.30034
0.306551
0.31301
0.319611
0.326274
0.332938
0.339566
0.346134
0.352631
0.359052
0.365402
0.371688
0.377921
0.38411
0.39042
0.397901
0.406439
0.416053
0.426987
0.43735
0.448145
0.451784
0.452275
0.451125
0.449894
0.449161
0.449278
0.45031
0.452176
0.455054
0.456261
0.456779
0.456595
0.455763
0.454481
0.453149
0.452016
0.45114
0.450485
0.450002
0.449683
0.449568
0.449734
0.45024
0.451108
0.452324
0.453853
0.455646
0.457656
0.459837
0.462151
0.464567
0.467064
0.469626
0.472315
0.475133
0.47811
0.481289
0.484709
0.488319
0.491706
0.493916
0.495339
0.49647
0.497535
0.498654
0.499893
0.501252
0.502672
0.50407
0.505405
0.506659
0.507825
0.508892
0.509857
0.510732
0.51155
0.512372
0.513242
0.514192
0.51523
0.516355
0.517556
0.518818
0.520131
0.521489
0.522886
0.524324
0.525807
0.527332
0.528894
0.53053
0.532246
0.534048
0.535947
0.537953
0.540081
0.542348
0.544768
0.547361
0.550145
0.553149
0.556415
0.56
0.563985
0.568477
0.573619
0.57963
0.586884
0.59621
0.610998
0.632687
0.765749
0.799136
0.799982
0.8
0.8
0.8
0.8
0.8
0.8
0.8
0.8
0.8
0.8
0.8
0.8
0.8
0.8
0.8
0.799999
0.799931
0.79591
0.683472
0.589625
0.584913
0.581326
0.577902
0.573998
0.569925
0.565743
0.561709
0.558302
0.556753
0.28151
0.283736
0.286958
0.291081
0.295988
0.301558
0.307679
0.314118
0.320763
0.327869
0.334772
0.341611
0.348393
0.355117
0.36179
0.36843
0.375064
0.381726
0.38846
0.395323
0.403928
0.414652
0.427918
0.441738
0.457548
0.468802
0.482366
0.484774
0.484445
0.48042
0.476681
0.47393
0.472833
0.473747
0.478198
0.484727
0.487426
0.487609
0.486347
0.483545
0.479362
0.475045
0.471311
0.468237
0.465615
0.463249
0.461062
0.459131
0.457649
0.456778
0.456574
0.457006
0.457989
0.459424
0.461217
0.463285
0.465563
0.468005
0.470578
0.473269
0.476173
0.479313
0.482766
0.486658
0.491168
0.496348
0.501404
0.503619
0.504747
0.505248
0.505736
0.506397
0.507373
0.50868
0.510435
0.512025
0.513335
0.514515
0.515555
0.516433
0.517121
0.517609
0.517943
0.51828
0.518707
0.519287
0.520036
0.520942
0.521977
0.523112
0.524323
0.525596
0.526924
0.528307
0.529753
0.531268
0.532818
0.534466
0.53622
0.538086
0.540071
0.542186
0.544442
0.546852
0.549421
0.552155
0.555051
0.558124
0.561407
0.564957
0.568862
0.573236
0.578227
0.584057
0.591121
0.600325
0.61572
0.635524
0.771153
0.799111
0.799981
0.8
0.8
0.8
0.8
0.8
0.8
0.8
0.8
0.8
0.8
0.8
0.8
0.8
0.8
0.799998
0.799969
0.798154
0.762008
0.638321
0.5898
0.585129
0.581586
0.578183
0.574326
0.570293
0.566142
0.562129
0.558732
0.557177
0.287186
0.289556
0.293015
0.297465
0.302768
0.308766
0.315294
0.322098
0.329066
0.33633
0.343461
0.351094
0.358103
0.365055
0.371995
0.378976
0.386064
0.393343
0.400931
0.410003
0.42241
0.439576
0.459275
0.473962
0.490957
0.496264
0.50105
0.52079
0.525364
0.491705
0.489545
0.487701
0.487231
0.489255
0.497264
0.508277
0.51139
0.513427
0.513044
0.51047
0.504554
0.497987
0.492548
0.488195
0.484333
0.480467
0.476376
0.472181
0.468383
0.465472
0.463661
0.462922
0.463102
0.464018
0.465499
0.467406
0.469631
0.472098
0.474763
0.477615
0.480766
0.484264
0.488248
0.492953
0.498793
0.505845
0.512384
0.514006
0.51478
0.51433
0.514155
0.514303
0.51507
0.516586
0.519936
0.522057
0.523568
0.524749
0.525746
0.52651
0.526955
0.526971
0.526548
0.526134
0.525879
0.525911
0.526258
0.526879
0.527708
0.528686
0.529769
0.530927
0.53215
0.53344
0.534815
0.536287
0.537864
0.539504
0.54128
0.543191
0.545242
0.54744
0.549794
0.552312
0.554992
0.557818
0.560749
0.563781
0.566946
0.570308
0.573987
0.578117
0.582847
0.588399
0.595196
0.604303
0.621065
0.639677
0.771747
0.799015
0.799978
0.8
0.8
0.8
0.8
0.8
0.8
0.8
0.8
0.8
0.8
0.8
0.8
0.8
0.799947
0.799528
0.79348
0.759863
0.696766
0.615036
0.589865
0.58535
0.581888
0.578525
0.574714
0.570713
0.56658
0.56257
0.559168
0.557602
0.29239
0.294976
0.298791
0.303736
0.309646
0.316296
0.323428
0.330759
0.338174
0.345705
0.353122
0.360861
0.368724
0.376267
0.383624
0.391131
0.398945
0.407257
0.416341
0.430593
0.449466
0.474519
0.496514
0.504412
0.511494
0.615011
0.76512
0.790029
0.770927
0.745786
0.545232
0.499498
0.498422
0.501762
0.515402
0.522776
0.558071
0.656348
0.675728
0.564916
0.514692
0.509659
0.506031
0.503307
0.500607
0.497214
0.492633
0.486791
0.480604
0.475371
0.471694
0.469603
0.468871
0.469216
0.470374
0.472133
0.474332
0.476857
0.479643
0.482681
0.486058
0.489851
0.494252
0.499619
0.506687
0.514872
0.51959
0.531539
0.538748
0.521092
0.520702
0.520524
0.521285
0.523998
0.530925
0.534511
0.536247
0.537496
0.539547
0.540386
0.540748
0.540255
0.538352
0.536594
0.535173
0.534329
0.534112
0.534383
0.534984
0.535794
0.536733
0.537749
0.538819
0.539955
0.541205
0.542597
0.544137
0.545767
0.547531
0.549437
0.551487
0.553689
0.556058
0.55861
0.561351
0.564251
0.567155
0.570048
0.572962
0.575976
0.579303
0.583101
0.587498
0.592677
0.599095
0.608013
0.626576
0.736065
0.795196
0.799877
0.799998
0.8
0.8
0.8
0.8
0.8
0.8
0.8
0.8
0.8
0.8
0.8
0.8
0.8
0.799951
0.799098
0.786466
0.740727
0.671624
0.594341
0.589624
0.585549
0.582242
0.578945
0.575182
0.571203
0.567051
0.563041
0.559622
0.558032
0.297147
0.300033
0.304356
0.310035
0.316863
0.324485
0.332482
0.340529
0.34851
0.356425
0.364212
0.37214
0.38014
0.388769
0.397207
0.405588
0.414626
0.424769
0.439455
0.463948
0.487169
0.513025
0.521555
0.591369
0.757819
0.794252
0.799331
0.799852
0.799593
0.799174
0.787442
0.562128
0.513399
0.51799
0.534861
0.691977
0.796796
0.798307
0.797958
0.784517
0.551444
0.516793
0.515301
0.514777
0.51403
0.512253
0.508499
0.501686
0.492686
0.484951
0.479483
0.476187
0.474689
0.474593
0.475552
0.477283
0.479562
0.482228
0.485177
0.488402
0.491917
0.495819
0.500327
0.505973
0.51398
0.522465
0.576636
0.784332
0.792364
0.768707
0.569492
0.528067
0.528085
0.531523
0.539163
0.590068
0.76264
0.747477
0.791554
0.79908
0.772416
0.585452
0.544352
0.54311
0.541824
0.540987
0.540886
0.541298
0.542016
0.542905
0.543874
0.544861
0.545832
0.546812
0.547935
0.549249
0.550751
0.55242
0.554171
0.55605
0.558062
0.560229
0.562584
0.565182
0.568087
0.571299
0.574216
0.576926
0.579477
0.581957
0.584855
0.588308
0.592341
0.59703
0.60289
0.611327
0.630532
0.759041
0.797637
0.799937
0.799999
0.8
0.8
0.8
0.8
0.8
0.8
0.8
0.8
0.8
0.8
0.8
0.8
0.8
0.799974
0.799434
0.785305
0.747053
0.678311
0.594038
0.589721
0.585909
0.582718
0.579488
0.575704
0.571754
0.567609
0.563576
0.560112
0.558468
0.301489
0.304767
0.309799
0.316575
0.324821
0.333922
0.343148
0.352131
0.360797
0.369194
0.377392
0.385604
0.393926
0.402781
0.413072
0.423462
0.434763
0.448578
0.480538
0.515902
0.533019
0.542186
0.737047
0.79053
0.798807
0.7999
0.799992
0.799998
0.799996
0.799992
0.799783
0.750865
0.623484
0.542893
0.578368
0.76224
0.799182
0.799984
0.799986
0.799822
0.777673
0.544465
0.604953
0.648657
0.631319
0.571999
0.535817
0.505285
0.497263
0.490383
0.485022
0.481526
0.479835
0.479679
0.480733
0.482685
0.48526
0.488223
0.491387
0.494757
0.498272
0.501997
0.506132
0.511428
0.519394
0.638649
0.791009
0.799734
0.799927
0.799422
0.78523
0.558217
0.533107
0.540219
0.548175
0.610483
0.789427
0.799048
0.799888
0.799982
0.799744
0.796344
0.791505
0.590245
0.546195
0.545683
0.546202
0.547098
0.548167
0.549305
0.550443
0.551512
0.55244
0.553219
0.55423
0.555515
0.55702
0.558694
0.560462
0.562374
0.564431
0.566672
0.569155
0.572006
0.57546
0.579764
0.58259
0.585047
0.587061
0.58912
0.591568
0.594532
0.598053
0.60189
0.606897
0.614522
0.633582
0.768549
0.798356
0.799954
0.799999
0.8
0.8
0.8
0.8
0.8
0.8
0.8
0.8
0.8
0.8
0.8
0.8
0.8
0.79996
0.799433
0.795337
0.785925
0.777353
0.594402
0.590148
0.586472
0.58332
0.580098
0.576375
0.572443
0.568282
0.564192
0.560648
0.558912
0.305449
0.309202
0.315204
0.323659
0.334225
0.345736
0.356737
0.366924
0.376375
0.385289
0.393904
0.402492
0.411316
0.420809
0.431647
0.446178
0.462739
0.486109
0.54275
0.558735
0.671433
0.774844
0.797317
0.799783
0.79998
0.799998
0.8
0.8
0.8
0.8
0.799994
0.798765
0.718696
0.560151
0.630454
0.780544
0.799587
0.799995
0.8
0.799998
0.631903
0.573644
0.707924
0.791575
0.784201
0.615981
0.558248
0.508113
0.500081
0.49381
0.488875
0.485636
0.484184
0.484363
0.485898
0.48846
0.491699
0.495509