/*--------------------------------*- C++ -*----------------------------------*\
| =========                 |                                                 |
| \\      /  F ield         | OpenFOAM: The Open Source CFD Toolbox           |
|  \\    /   O peration     | Version:  2.1.0                                 |
|   \\  /    A nd           | Web:      www.OpenFOAM.org                      |
|    \\/     M anipulation  |                                                 |
\*---------------------------------------------------------------------------*/
FoamFile
{
    version     2.0;
    format      ascii;
    class       volScalarField;
    location    "64240";
    object      sw;
}
// * * * * * * * * * * * * * * * * * * * * * * * * * * * * * * * * * * * * * //

dimensions      [0 0 0 0 0 0 0];

internalField   nonuniform List<scalar> 
15000
(
0.8
0.799991
0.799981
0.799977
0.799923
0.799454
0.797558
0.793222
0.786401
0.777864
0.768485
0.758876
0.749381
0.740182
0.731359
0.722942
0.71494
0.707343
0.700138
0.693304
0.686823
0.680673
0.674833
0.669283
0.664002
0.658969
0.654168
0.64958
0.645188
0.640978
0.636933
0.633042
0.629291
0.62567
0.622167
0.618773
0.615478
0.612273
0.609152
0.606107
0.603131
0.600217
0.597359
0.594553
0.591792
0.589073
0.586394
0.58375
0.581141
0.578565
0.576021
0.573509
0.571028
0.568579
0.566163
0.56378
0.561431
0.559117
0.556839
0.554598
0.552394
0.550228
0.5481
0.54601
0.543958
0.541943
0.539964
0.53802
0.536109
0.534231
0.532384
0.530567
0.528779
0.527018
0.525282
0.523572
0.521885
0.52022
0.518578
0.516955
0.515353
0.51377
0.512205
0.510658
0.509129
0.507617
0.506123
0.504646
0.503186
0.501745
0.500321
0.498917
0.497532
0.496167
0.494822
0.4935
0.492201
0.490925
0.489674
0.488449
0.487251
0.486082
0.484942
0.483832
0.482754
0.481708
0.480696
0.479717
0.478774
0.477865
0.476991
0.476152
0.475346
0.474573
0.47383
0.473118
0.472433
0.471776
0.471144
0.470533
0.46994
0.469356
0.468771
0.468172
0.467543
0.466868
0.466141
0.465383
0.464661
0.464062
0.463602
0.463263
0.463014
0.462764
0.462513
0.462255
0.46199
0.461714
0.461427
0.461124
0.460801
0.460451
0.460063
0.459622
0.459106
0.458482
0.457695
0.456637
0.455041
0.451848
0.799991
0.799975
0.799967
0.799967
0.799867
0.799155
0.796732
0.791781
0.784519
0.775778
0.766365
0.756811
0.747413
0.738321
0.729604
0.721287
0.713373
0.705857
0.698722
0.691951
0.685526
0.679426
0.673631
0.668122
0.662878
0.65788
0.653111
0.648553
0.644189
0.640006
0.635987
0.632121
0.628394
0.624795
0.621314
0.61794
0.614666
0.611481
0.608379
0.605352
0.602394
0.599498
0.596657
0.593866
0.591121
0.588416
0.58575
0.583119
0.580522
0.577956
0.575422
0.572919
0.570447
0.568005
0.565595
0.563217
0.560872
0.558562
0.556287
0.554048
0.551847
0.549684
0.547558
0.545471
0.543421
0.541408
0.539431
0.537488
0.53558
0.533704
0.531859
0.530043
0.528257
0.526498
0.524766
0.523058
0.521373
0.519711
0.518071
0.516451
0.514851
0.51327
0.511707
0.510161
0.508633
0.507122
0.505628
0.504151
0.50269
0.501247
0.499822
0.498415
0.497026
0.495657
0.494308
0.492979
0.491672
0.490388
0.489127
0.48789
0.486677
0.485491
0.484331
0.483198
0.482092
0.481015
0.479966
0.478944
0.47795
0.476982
0.47604
0.47512
0.47422
0.473338
0.472472
0.471618
0.470776
0.469946
0.469127
0.468317
0.467507
0.46668
0.465805
0.464841
0.463734
0.462422
0.460861
0.459092
0.457372
0.456116
0.455295
0.454809
0.454565
0.454411
0.454342
0.45434
0.454367
0.454409
0.454475
0.454584
0.454745
0.454943
0.455154
0.455341
0.455462
0.455471
0.455304
0.454851
0.453847
0.451235
0.799981
0.799966
0.799959
0.799939
0.799674
0.798421
0.79512
0.789347
0.781597
0.772695
0.763321
0.753901
0.744669
0.735745
0.727184
0.71901
0.711223
0.703818
0.696782
0.6901
0.683753
0.677724
0.671994
0.666543
0.661354
0.656408
0.651686
0.647174
0.642853
0.63871
0.634731
0.630902
0.627211
0.623647
0.620199
0.616858
0.613615
0.610462
0.607391
0.604394
0.601464
0.598594
0.595779
0.593012
0.590289
0.587607
0.58496
0.582348
0.579768
0.577218
0.574698
0.572207
0.569745
0.567313
0.56491
0.562539
0.5602
0.557894
0.555624
0.553389
0.551191
0.54903
0.546907
0.544823
0.542775
0.540765
0.538791
0.536852
0.534947
0.533074
0.531233
0.529423
0.527641
0.525886
0.524157
0.522454
0.520774
0.519116
0.51748
0.515864
0.514268
0.51269
0.51113
0.509588
0.508062
0.506552
0.505059
0.503582
0.502122
0.500678
0.49925
0.49784
0.496448
0.495073
0.493717
0.492381
0.491064
0.489767
0.488492
0.487238
0.486006
0.484796
0.483609
0.482445
0.481304
0.480185
0.479086
0.478007
0.476946
0.475899
0.474863
0.473834
0.472806
0.471773
0.470728
0.469665
0.468582
0.467478
0.466358
0.465227
0.464078
0.462879
0.46157
0.460064
0.45824
0.455951
0.453063
0.449558
0.44612
0.444156
0.443051
0.442474
0.442248
0.442277
0.442562
0.443071
0.443646
0.444237
0.44489
0.445674
0.446623
0.447703
0.448852
0.449991
0.451038
0.451924
0.452572
0.45287
0.452559
0.450585
0.799977
0.799966
0.79994
0.799793
0.799062
0.796847
0.792401
0.78578
0.777635
0.768683
0.759441
0.75023
0.741225
0.732519
0.724159
0.716163
0.708534
0.701267
0.694354
0.687781
0.681532
0.675592
0.669942
0.664567
0.659447
0.654567
0.649907
0.645454
0.64119
0.637101
0.633173
0.629394
0.625752
0.622235
0.618832
0.615535
0.612335
0.609224
0.606193
0.603235
0.600343
0.59751
0.59473
0.591996
0.589304
0.58665
0.584031
0.581443
0.578886
0.576356
0.573854
0.571378
0.56893
0.566509
0.564116
0.561753
0.559421
0.557121
0.554854
0.552623
0.550428
0.548271
0.546151
0.544069
0.542025
0.540019
0.538049
0.536115
0.534215
0.532347
0.530511
0.528706
0.52693
0.525181
0.523459
0.521762
0.520088
0.518437
0.516807
0.515196
0.513605
0.512033
0.510477
0.508938
0.507415
0.505908
0.504416
0.502939
0.501478
0.500032
0.498603
0.49719
0.495792
0.494411
0.493047
0.4917
0.490371
0.48906
0.487767
0.486492
0.485236
0.483999
0.482779
0.481578
0.480392
0.479221
0.478062
0.476913
0.475769
0.474624
0.473473
0.472305
0.471111
0.469876
0.468586
0.467224
0.465776
0.464237
0.462624
0.46099
0.459348
0.457652
0.455803
0.45365
0.450989
0.447558
0.443073
0.437208
0.43154
0.429707
0.42876
0.428271
0.428076
0.428279
0.428967
0.430184
0.431422
0.432574
0.433789
0.435264
0.437105
0.439232
0.441527
0.443845
0.446038
0.44799
0.449604
0.450763
0.451214
0.44991
0.799928
0.799874
0.799693
0.79909
0.797401
0.793885
0.788304
0.781034
0.772698
0.763838
0.754826
0.74589
0.737162
0.728713
0.720583
0.712791
0.705343
0.698235
0.691463
0.685015
0.678879
0.673042
0.667488
0.6622
0.657164
0.652362
0.647778
0.643397
0.639202
0.63518
0.631317
0.627599
0.624016
0.620557
0.617211
0.613969
0.610823
0.607764
0.604785
0.601877
0.599032
0.596245
0.593509
0.590817
0.588164
0.585547
0.582962
0.580405
0.577875
0.575371
0.572891
0.570434
0.568002
0.565595
0.563213
0.560859
0.558534
0.55624
0.553978
0.55175
0.549558
0.547403
0.545287
0.543209
0.541169
0.539167
0.537201
0.535272
0.533378
0.531518
0.52969
0.527893
0.526124
0.524383
0.522668
0.520979
0.519313
0.517669
0.516046
0.514443
0.512859
0.511293
0.509743
0.508209
0.50669
0.505186
0.503697
0.502221
0.50076
0.499314
0.497881
0.496464
0.495061
0.493672
0.492298
0.49094
0.489596
0.488267
0.486954
0.485655
0.484371
0.483101
0.481844
0.480598
0.479362
0.478131
0.476902
0.47567
0.474429
0.473168
0.471878
0.470542
0.46914
0.467647
0.466026
0.464237
0.462235
0.459989
0.457548
0.45516
0.452896
0.45067
0.448317
0.445614
0.442277
0.437943
0.432183
0.423905
0.416988
0.416725
0.416029
0.415718
0.415522
0.415692
0.416481
0.41844
0.4202
0.421544
0.4229
0.424695
0.427224
0.4303
0.433732
0.437312
0.44077
0.443898
0.446559
0.448629
0.449863
0.449227
0.799516
0.799237
0.798541
0.796997
0.794011
0.789247
0.782846
0.775251
0.766944
0.75831
0.749603
0.740988
0.732566
0.724397
0.716516
0.708945
0.70169
0.694754
0.688135
0.681824
0.675812
0.670089
0.66464
0.659452
0.65451
0.649799
0.645302
0.641004
0.63689
0.632947
0.629159
0.625515
0.622003
0.618612
0.615333
0.612157
0.609076
0.60608
0.603161
0.600313
0.597527
0.594796
0.592112
0.589471
0.586867
0.584295
0.581751
0.579233
0.576737
0.574263
0.571809
0.569375
0.566962
0.564571
0.562202
0.559858
0.55754
0.555251
0.552993
0.550768
0.548579
0.546427
0.544313
0.542238
0.540202
0.538205
0.536246
0.534324
0.532437
0.530585
0.528765
0.526977
0.525218
0.523487
0.521782
0.520103
0.518446
0.516812
0.515199
0.513605
0.512029
0.510471
0.508928
0.507401
0.505888
0.504388
0.502902
0.501428
0.499967
0.498519
0.497083
0.495662
0.494253
0.492855
0.491471
0.490098
0.488738
0.48739
0.486054
0.484728
0.483413
0.482107
0.480807
0.479512
0.478218
0.47692
0.475612
0.474287
0.472935
0.471543
0.470091
0.468555
0.466901
0.46508
0.463023
0.460637
0.457806
0.454408
0.450543
0.447171
0.444322
0.441749
0.439162
0.43627
0.432745
0.428197
0.422178
0.412376
0.408499
0.40054
0.393321
0.386306
0.382952
0.386761
0.396128
0.413952
0.415098
0.415563
0.416085
0.417154
0.41947
0.422733
0.426661
0.431205
0.435797
0.440026
0.443673
0.446603
0.448572
0.448556
0.797842
0.797063
0.795511
0.792825
0.788686
0.783085
0.776289
0.768669
0.760567
0.752246
0.743889
0.735617
0.727514
0.719634
0.71201
0.704665
0.697611
0.690853
0.684392
0.678224
0.672343
0.66674
0.661405
0.656324
0.651486
0.646874
0.642474
0.638271
0.63425
0.630395
0.626695
0.623135
0.619704
0.616393
0.613192
0.610091
0.607084
0.604161
0.601315
0.598538
0.59582
0.593155
0.590536
0.587955
0.585408
0.58289
0.580396
0.577924
0.575469
0.573031
0.570609
0.568202
0.56581
0.563437
0.561081
0.558748
0.556437
0.554153
0.551899
0.549676
0.547489
0.545338
0.543225
0.541153
0.539121
0.537129
0.535176
0.533262
0.531384
0.529543
0.527734
0.525957
0.52421
0.52249
0.520797
0.519128
0.517483
0.51586
0.514258
0.512676
0.511111
0.509563
0.508029
0.50651
0.505004
0.50351
0.502028
0.500557
0.499097
0.497647
0.496209
0.494782
0.493366
0.49196
0.490563
0.489176
0.487799
0.48643
0.485068
0.483714
0.482365
0.481018
0.479673
0.478323
0.476966
0.475595
0.474201
0.472773
0.471299
0.469757
0.468121
0.466353
0.464398
0.462173
0.459559
0.456379
0.452374
0.44716
0.440832
0.436575
0.433539
0.431059
0.428695
0.42612
0.423038
0.419138
0.4141
0.403882
0.377685
0.229447
0.202015
0.200054
0.211853
0.336047
0.334288
0.330057
0.339275
0.350157
0.369216
0.389377
0.41484
0.417728
0.421135
0.426304
0.431764
0.436816
0.441215
0.444826
0.447405
0.447916
0.793979
0.792587
0.790196
0.786623
0.781786
0.775822
0.768982
0.761545
0.75375
0.745786
0.737792
0.729865
0.722078
0.714482
0.707111
0.699989
0.693134
0.686553
0.68025
0.674226
0.668477
0.662998
0.657779
0.652811
0.648083
0.643578
0.639284
0.635186
0.631268
0.627514
0.623912
0.620447
0.617108
0.613886
0.610772
0.607757
0.604835
0.601996
0.599232
0.596536
0.593898
0.591311
0.588767
0.586259
0.583781
0.581327
0.578893
0.576474
0.574068
0.571673
0.569288
0.566912
0.564546
0.562192
0.559852
0.557528
0.555225
0.552945
0.550692
0.54847
0.546281
0.54413
0.542018
0.539947
0.537918
0.535932
0.533986
0.532081
0.530214
0.528384
0.526588
0.524824
0.523089
0.521383
0.519704
0.518049
0.516418
0.514808
0.51322
0.511651
0.510099
0.508563
0.507042
0.505533
0.504036
0.50255
0.501073
0.499606
0.498147
0.496698
0.495257
0.493824
0.492402
0.490986
0.489577
0.488175
0.486778
0.485386
0.483998
0.482612
0.481226
0.479838
0.478442
0.477035
0.47561
0.47416
0.472672
0.471133
0.469524
0.467817
0.465975
0.463941
0.461634
0.458931
0.455648
0.451496
0.445988
0.438174
0.427802
0.42363
0.421088
0.419175
0.417414
0.415543
0.413376
0.410713
0.407324
0.396083
0.362909
0.286578
0.209462
0.200403
0.200132
0.207594
0.209858
0.211422
0.216176
0.219534
0.329593
0.341205
0.38404
0.404073
0.419748
0.424599
0.429667
0.434722
0.439391
0.443398
0.446405
0.447321
0.787839
0.785972
0.783036
0.778996
0.7739
0.767911
0.761237
0.754089
0.746642
0.739042
0.7314
0.723803
0.716315
0.708988
0.701856
0.694948
0.688282
0.68187
0.67572
0.669835
0.664214
0.658856
0.653754
0.648899
0.644283
0.639892
0.635713
0.63173
0.627925
0.624283
0.620789
0.61743
0.614193
0.61107
0.608052
0.605133
0.602305
0.599561
0.596893
0.59429
0.591744
0.589248
0.586792
0.584369
0.581972
0.579595
0.577231
0.574877
0.572529
0.570185
0.567843
0.565503
0.563166
0.560834
0.55851
0.556197
0.553899
0.551621
0.549368
0.547144
0.544953
0.542798
0.540684
0.538613
0.536585
0.534603
0.532665
0.53077
0.528916
0.5271
0.52532
0.523571
0.521852
0.520162
0.518497
0.516858
0.515242
0.513649
0.512077
0.510524
0.508988
0.507467
0.50596
0.504465
0.502979
0.501503
0.500034
0.498572
0.497116
0.495667
0.494223
0.492786
0.491356
0.489931
0.48851
0.487091
0.485675
0.484259
0.482843
0.481424
0.479999
0.478565
0.477117
0.475648
0.474151
0.472616
0.471028
0.469368
0.467612
0.465723
0.463649
0.461316
0.458612
0.455372
0.451345
0.446133
0.438984
0.428117
0.412652
0.40956
0.407318
0.405955
0.404856
0.403935
0.403178
0.402285
0.401095
0.385423
0.335249
0.251323
0.205139
0.200227
0.200008
0.200209
0.200348
0.200497
0.200786
0.200893
0.217866
0.220958
0.253908
0.399021
0.419455
0.42393
0.428607
0.433448
0.438127
0.442309
0.445578
0.446775
0.780099
0.777975
0.774802
0.770626
0.765543
0.759709
0.753295
0.746465
0.739361
0.7321
0.724782
0.717484
0.710269
0.703186
0.696273
0.68956
0.683068
0.676811
0.670801
0.665044
0.659542
0.654297
0.649306
0.644562
0.640058
0.635784
0.631726
0.627866
0.624187
0.62067
0.617298
0.614055
0.61093
0.607915
0.605003
0.602189
0.599466
0.596827
0.594265
0.59177
0.589332
0.586941
0.584589
0.582267
0.579966
0.577678
0.575399
0.573123
0.570844
0.568561
0.56627
0.563972
0.561668
0.55936
0.557053
0.55475
0.552457
0.550179
0.547922
0.545692
0.543493
0.541332
0.539211
0.537137
0.53511
0.533131
0.531201
0.529317
0.527478
0.525678
0.523915
0.522184
0.520484
0.518811
0.517165
0.515543
0.513946
0.512371
0.510818
0.509284
0.507768
0.506266
0.504777
0.503298
0.501827
0.500363
0.498903
0.497448
0.495997
0.494549
0.493104
0.491662
0.490224
0.48879
0.487356
0.485921
0.484484
0.483044
0.481598
0.480144
0.478678
0.477196
0.475691
0.474157
0.472583
0.470957
0.469261
0.467471
0.465555
0.463465
0.461136
0.458472
0.455335
0.451523
0.446738
0.440503
0.431881
0.418526
0.401267
0.375832
0.356555
0.336624
0.304897
0.26297
0.251191
0.280033
0.350432
0.344967
0.285059
0.20872
0.200514
0.200022
0.200001
0.200006
0.200011
0.200019
0.20003
0.200033
0.200843
0.201095
0.205791
0.414552
0.419524
0.423566
0.428142
0.432694
0.437265
0.44149
0.444897
0.446273
0.771582
0.769363
0.766147
0.762012
0.757066
0.751453
0.745313
0.738784
0.731987
0.725025
0.717988
0.71095
0.703971
0.697101
0.690379
0.683835
0.677494
0.671372
0.665483
0.659836
0.654437
0.64929
0.644396
0.639754
0.635358
0.631201
0.627269
0.623544
0.620004
0.616626
0.613388
0.610274
0.607272
0.604374
0.601575
0.598874
0.596266
0.593745
0.591304
0.588933
0.58662
0.584354
0.582125
0.579921
0.577734
0.575556
0.573378
0.571195
0.569
0.566789
0.564559
0.562311
0.560045
0.557766
0.555476
0.553183
0.550892
0.548611
0.546346
0.544104
0.541893
0.539719
0.537587
0.535503
0.533463
0.531476
0.529547
0.527678
0.525857
0.524078
0.522337
0.520629
0.51895
0.517298
0.515672
0.514071
0.512494
0.510942
0.509411
0.507901
0.506409
0.504931
0.503465
0.502008
0.500556
0.499109
0.497663
0.496218
0.494774
0.493329
0.491884
0.490439
0.488993
0.48755
0.486104
0.484652
0.483194
0.481728
0.48025
0.478759
0.47725
0.475717
0.474153
0.472549
0.470893
0.46917
0.467357
0.465425
0.463333
0.461024
0.458416
0.455396
0.451805
0.447418
0.441904
0.43474
0.424805
0.409278
0.392757
0.339663
0.260335
0.202776
0.200038
0.200358
0.20595
0.208937
0.203794
0.229446
0.213293
0.201176
0.20006
0.200002
0.2
0.2
0.2
0.200001
0.200001
0.200001
0.200023
0.200024
0.250383
0.415086
0.419481
0.423276
0.427721
0.432187
0.436649
0.440859
0.444328
0.445805
0.762886
0.760661
0.757492
0.753465
0.748688
0.743289
0.737392
0.731117
0.724573
0.717855
0.711047
0.704222
0.697437
0.690742
0.684176
0.677771
0.671552
0.665537
0.659742
0.654179
0.648856
0.643782
0.638963
0.634403
0.630101
0.626055
0.622252
0.618672
0.615288
0.612069
0.608986
0.606017
0.603149
0.600375
0.597698
0.595117
0.592633
0.590244
0.587941
0.585715
0.58355
0.581433
0.57935
0.57729
0.575241
0.573194
0.57114
0.569071
0.566978
0.564855
0.5627
0.560512
0.558291
0.556043
0.553772
0.551488
0.549197
0.546907
0.544629
0.542369
0.540136
0.537941
0.535788
0.533667
0.5316
0.529596
0.527661
0.525797
0.523998
0.522246
0.520532
0.518851
0.517198
0.515571
0.513969
0.512392
0.510841
0.509315
0.507813
0.506332
0.504871
0.503426
0.501991
0.500562
0.499137
0.497713
0.496286
0.494856
0.493421
0.491982
0.490539
0.489092
0.487641
0.48619
0.484732
0.483264
0.481785
0.480292
0.478782
0.477252
0.475697
0.47411
0.472483
0.470805
0.469061
0.467231
0.46529
0.463201
0.460915
0.458365
0.455459
0.452071
0.448029
0.443096
0.436926
0.428945
0.417787
0.4001
0.38643
0.292286
0.202676
0.200036
0.2
0.200001
0.200076
0.200225
0.200185
0.201976
0.200995
0.200071
0.200003
0.2
0.2
0.2
0.2
0.2
0.2
0.2
0.2
0.203127
0.346081
0.414997
0.419312
0.42302
0.427339
0.431747
0.436177
0.440353
0.443837
0.445362
0.754363
0.752169
0.749073
0.745157
0.740528
0.735301
0.729589
0.723504
0.717147
0.710609
0.703972
0.697305
0.690665
0.684102
0.677653
0.671349
0.665216
0.659273
0.653535
0.648017
0.642732
0.637692
0.632909
0.628395
0.62416
0.620206
0.616529
0.613108
0.609905
0.606875
0.603974
0.601172
0.598451
0.595811
0.593258
0.590803
0.588454
0.586213
0.584072
0.582017
0.580032
0.578096
0.576192
0.574306
0.572426
0.570541
0.568641
0.566715
0.56475
0.562738
0.560675
0.55856
0.556393
0.554181
0.551932
0.549655
0.54736
0.545056
0.542756
0.540469
0.538205
0.535975
0.533759
0.531589
0.529479
0.527444
0.525495
0.523636
0.521864
0.520146
0.518469
0.516822
0.5152
0.513601
0.512025
0.510475
0.508951
0.507456
0.505988
0.504545
0.503123
0.501718
0.500324
0.498935
0.497545
0.496151
0.494749
0.493338
0.491918
0.490488
0.48905
0.487603
0.486147
0.484682
0.483214
0.481731
0.480231
0.478712
0.47717
0.4756
0.473996
0.472351
0.470655
0.468893
0.467049
0.465099
0.463013
0.460748
0.458249
0.455443
0.45223
0.448481
0.444022
0.438615
0.431901
0.423243
0.410883
0.390466
0.380159
0.243048
0.201931
0.200049
0.200001
0.2
0.200001
0.200004
0.200006
0.200071
0.200036
0.200003
0.2
0.2
0.2
0.2
0.2
0.2
0.2
0.200005
0.200335
0.219887
0.370771
0.414839
0.419121
0.422794
0.427026
0.431359
0.435744
0.439914
0.443398
0.444935
0.746207
0.74405
0.741014
0.737179
0.732648
0.727528
0.72193
0.715958
0.709713
0.703285
0.696753
0.690185
0.683638
0.677157
0.670779
0.664533
0.658442
0.652523
0.646794
0.641268
0.635962
0.630893
0.626081
0.621548
0.617243
0.613251
0.609685
0.606439
0.603461
0.600678
0.598016
0.595424
0.592881
0.590389
0.58797
0.58565
0.583454
0.58139
0.57945
0.577618
0.575866
0.574167
0.572495
0.570835
0.569173
0.567499
0.565799
0.564059
0.562262
0.560396
0.558453
0.55643
0.554331
0.552164
0.549939
0.547668
0.545365
0.543041
0.540708
0.53838
0.536069
0.533762
0.531469
0.529216
0.527023
0.524916
0.522923
0.521063
0.519329
0.517659
0.516033
0.514433
0.512851
0.511285
0.509739
0.508219
0.506728
0.505269
0.503844
0.502449
0.50108
0.499731
0.498394
0.49706
0.495719
0.494368
0.493001
0.491618
0.490219
0.488804
0.487375
0.485932
0.484475
0.483005
0.481529
0.480032
0.478511
0.476963
0.475383
0.473767
0.472106
0.470392
0.468613
0.466752
0.46479
0.462701
0.460449
0.457989
0.455264
0.452197
0.448691
0.444619
0.439814
0.434043
0.426945
0.417821
0.404478
0.381744
0.325068
0.229636
0.200921
0.200019
0.2
0.2
0.2
0.2
0.2
0.200002
0.200001
0.2
0.2
0.2
0.2
0.2
0.2
0.2
0.2
0.200013
0.200587
0.219406
0.387587
0.414812
0.418993
0.422617
0.426762
0.431024
0.435357
0.439497
0.442971
0.444514
0.738512
0.736383
0.733376
0.729573
0.725073
0.719984
0.714412
0.708467
0.70225
0.695853
0.689356
0.682824
0.676311
0.669861
0.663503
0.657263
0.651159
0.645206
0.639418
0.633807
0.62839
0.62319
0.618105
0.612909
0.607815
0.603037
0.59892
0.595958
0.59342
0.591164
0.589021
0.586886
0.584712
0.582507
0.580321
0.578228
0.57629
0.574532
0.57295
0.571518
0.57019
0.568911
0.56764
0.566357
0.565051
0.563713
0.56233
0.560881
0.559343
0.557697
0.555932
0.554046
0.552045
0.54994
0.54775
0.545488
0.543173
0.540821
0.538446
0.536062
0.533682
0.531261
0.528839
0.52643
0.524062
0.521781
0.519659
0.517766
0.516087
0.514496
0.512952
0.511426
0.509903
0.508382
0.506874
0.50539
0.503941
0.502531
0.501164
0.499837
0.498546
0.497282
0.496033
0.494785
0.493523
0.492239
0.490928
0.48959
0.488224
0.486834
0.485422
0.48399
0.482538
0.481066
0.479575
0.478068
0.476528
0.474949
0.473328
0.471658
0.469929
0.468132
0.466253
0.464274
0.462173
0.459923
0.457488
0.454825
0.451876
0.44857
0.444814
0.44049
0.435442
0.429447
0.422141
0.41278
0.398783
0.375384
0.289256
0.220729
0.200633
0.200013
0.2
0.2
0.2
0.2
0.2
0.2
0.2
0.2
0.2
0.2
0.2
0.2
0.2
0.2
0.2
0.200014
0.20041
0.208836
0.409782
0.415123
0.418961
0.42248
0.426526
0.430715
0.434992
0.439095
0.442547
0.444093
0.731326
0.729204
0.726185
0.722353
0.717805
0.712652
0.707009
0.70099
0.694706
0.688255
0.681716
0.675153
0.668614
0.662135
0.65574
0.649446
0.643262
0.637196
0.631255
0.625445
0.619777
0.614019
0.60775
0.601188
0.594266
0.587439
0.581211
0.57809
0.576329
0.57517
0.574133
0.572958
0.571516
0.569806
0.567951
0.566147
0.564582
0.563328
0.56239
0.561725
0.561238
0.560797
0.560313
0.559753
0.559113
0.558396
0.557592
0.556672
0.555599
0.554342
0.552885
0.551232
0.549396
0.547401
0.545271
0.543033
0.54071
0.538325
0.535894
0.533433
0.530925
0.528346
0.52571
0.523018
0.520288
0.517586
0.515099
0.513093
0.511506
0.510063
0.508676
0.507286
0.505865
0.504413
0.502952
0.501515
0.500121
0.49878
0.497497
0.496275
0.49511
0.49399
0.492896
0.491799
0.490676
0.489512
0.488299
0.487037
0.485732
0.484388
0.483011
0.481604
0.480169
0.478705
0.47721
0.475701
0.474143
0.472532
0.470862
0.469127
0.467316
0.465419
0.46342
0.461303
0.459044
0.456621
0.454001
0.451146
0.448004
0.444513
0.440585
0.436114
0.43095
0.424878
0.41753
0.408124
0.393704
0.370748
0.256444
0.205809
0.200182
0.200004
0.2
0.2
0.2
0.2
0.2
0.2
0.2
0.2
0.2
0.2
0.2
0.2
0.2
0.2
0.200001
0.200039
0.201256
0.229301
0.410446
0.415214
0.418865
0.422317
0.426281
0.430406
0.434631
0.438696
0.442124
0.443671
0.724658
0.722512
0.719432
0.715506
0.710841
0.705523
0.69966
0.693449
0.68699
0.680389
0.673726
0.667062
0.660434
0.653866
0.647369
0.640948
0.634598
0.628312
0.622079
0.61589
0.60958
0.602099
0.593561
0.583947
0.573013
0.56265
0.551855
0.548216
0.547725
0.548875
0.550106
0.550839
0.550722
0.54969
0.547824
0.544946
0.543739
0.543221
0.543405
0.544237
0.545519
0.546851
0.547984
0.54886
0.549515
0.549998
0.550317
0.550432
0.550266
0.54976
0.548892
0.547676
0.546147
0.544354
0.542344
0.540163
0.537849
0.535433
0.532936
0.530374
0.527685
0.524867
0.52189
0.518711
0.515291
0.511681
0.508294
0.506084
0.504661
0.50353
0.502465
0.501346
0.500107
0.498748
0.497328
0.49593
0.494595
0.493341
0.492175
0.491108
0.490143
0.489268
0.48845
0.487628
0.486758
0.485808
0.48477
0.483645
0.482444
0.481182
0.479869
0.478511
0.477114
0.475676
0.474193
0.472668
0.471106
0.46947
0.467754
0.465952
0.464053
0.462047
0.459919
0.457652
0.455232
0.452639
0.449855
0.446851
0.443585
0.44
0.436015
0.431523
0.426381
0.42037
0.413116
0.40379
0.389002
0.367313
0.234251
0.200864
0.200018
0.2
0.2
0.2
0.2
0.2
0.2
0.2
0.2
0.2
0.2
0.2
0.2
0.2
0.2
0.2
0.200001
0.200069
0.20409
0.316528
0.410375
0.415087
0.418674
0.422098
0.426002
0.430075
0.434257
0.438291
0.441698
0.443247
0.71849
0.716264
0.713042
0.708919
0.704012
0.698442
0.692321
0.685882
0.679237
0.672131
0.665228
0.658389
0.651607
0.644883
0.63821
0.63157
0.624936
0.618274
0.61154
0.604677
0.596072
0.585348
0.572082
0.558262
0.542452
0.531198
0.517634
0.515226
0.515555
0.51958
0.523319
0.52607
0.527167
0.526253
0.521802
0.515273
0.512574
0.512391
0.513653
0.516455
0.520638
0.524955
0.528689
0.531763
0.534385
0.536751
0.538938
0.540869
0.542351
0.543222
0.543426
0.542994
0.542011
0.540576
0.538783
0.536715
0.534437
0.531995
0.529422
0.526731
0.523827
0.520687
0.517234
0.513342
0.508832
0.503652
0.498596
0.496381
0.495253
0.494752
0.494264
0.493603
0.492627
0.49132
0.489565
0.487975
0.486665
0.485485
0.484445
0.483567
0.482879
0.482391
0.482057
0.48172
0.481293
0.480713
0.479964
0.479058
0.478023
0.476888
0.475677
0.474404
0.473076
0.471693
0.470247
0.468732
0.467182
0.465534
0.46378
0.461914
0.459929
0.457814
0.455558
0.453148
0.450579
0.447845
0.444949
0.441876
0.438593
0.435043
0.431138
0.426764
0.421773
0.415943
0.408879
0.399675
0.38428
0.364476
0.228847
0.200889
0.200019
0.2
0.2
0.2
0.2
0.2
0.2
0.2
0.2
0.2
0.2
0.2
0.2
0.2
0.2
0.200002
0.200031
0.201846
0.237992
0.361679
0.4102
0.414871
0.418414
0.421817
0.425674
0.429707
0.433858
0.437871
0.441268
0.442823
0.712814
0.710444
0.706985
0.702535
0.697232
0.691234
0.684706
0.677902
0.670934
0.66367
0.656539
0.648906
0.641897
0.634945
0.628005
0.621024
0.613936
0.606657
0.599069
0.589997
0.57759
0.560424
0.540725
0.526038
0.509043
0.503736
0.49895
0.47921
0.474636
0.508295
0.510455
0.512299
0.512769
0.510745
0.502736
0.491723
0.48861
0.486573
0.486956
0.48953
0.495446
0.502013
0.507452
0.511805
0.515667
0.519533
0.523624
0.527819
0.531617
0.534528
0.536339
0.537078
0.536898
0.535982
0.534501
0.532594
0.530369
0.527902
0.525237
0.522385
0.519234
0.515736
0.511752
0.507047
0.501207
0.494155
0.487616
0.485994
0.48522
0.48567
0.485845
0.485697
0.48493
0.483414
0.480064
0.477943
0.476432
0.475251
0.474254
0.47349
0.473045
0.473029
0.473452
0.473866
0.474121
0.474089
0.473742
0.473121
0.472292
0.471314
0.470231
0.469073
0.46785
0.46656
0.465185
0.463713
0.462136
0.460496
0.45872
0.456809
0.454758
0.45256
0.450206
0.447688
0.445008
0.442182
0.439251
0.436219
0.433054
0.429692
0.426013
0.421883
0.417153
0.411601
0.404804
0.395697
0.378935
0.360323
0.228253
0.200985
0.200022
0.2
0.2
0.2
0.2
0.2
0.2
0.2
0.2
0.2
0.2
0.2
0.2
0.2
0.200053
0.200472
0.20652
0.240137
0.303234
0.384964
0.410135
0.41465
0.418112
0.421475
0.425286
0.429287
0.43342
0.43743
0.440832
0.442398
0.70761
0.705024
0.701209
0.696264
0.690354
0.683704
0.676572
0.669241
0.661826
0.654295
0.646878
0.639139
0.631276
0.623733
0.616376
0.608869
0.601055
0.592743
0.583659
0.569407
0.550534
0.525481
0.503486
0.495588
0.488506
0.384989
0.23488
0.209971
0.229073
0.254214
0.454768
0.500502
0.501578
0.498238
0.484598
0.477224
0.441929
0.343652
0.324272
0.435084
0.485308
0.490341
0.493969
0.496693
0.499393
0.502786
0.507367
0.513209
0.519396
0.524629
0.528306
0.530397
0.531129
0.530784
0.529626
0.527867
0.525668
0.523143
0.520357
0.517319
0.513942
0.510149
0.505748
0.500381
0.493313
0.485128
0.48041
0.468461
0.461252
0.478908
0.479298
0.479476
0.478715
0.476002
0.469075
0.465489
0.463753
0.462504
0.460453
0.459614
0.459252
0.459745
0.461648
0.463406
0.464827
0.465671
0.465888
0.465617
0.465016
0.464206
0.463267
0.462251
0.461181
0.460045
0.458795
0.457403
0.455863
0.454233
0.452469
0.450563
0.448513
0.446311
0.443942
0.44139
0.438649
0.435749
0.432845
0.429952
0.427038
0.424024
0.420697
0.416899
0.412502
0.407323
0.400905
0.391987
0.373424
0.263935
0.204804
0.200123
0.200002
0.2
0.2
0.2
0.2
0.2
0.2
0.2
0.2
0.2
0.2
0.2
0.2
0.2
0.200049
0.200902
0.213534
0.259273
0.328376
0.405659
0.410376
0.414451
0.417758
0.421055
0.424818
0.428797
0.432949
0.436959
0.440378
0.441968
0.702853
0.699967
0.695644
0.689965
0.683137
0.675515
0.667518
0.659471
0.65149
0.643575
0.635788
0.62786
0.61986
0.611231
0.602793
0.594412
0.585374
0.575231
0.560545
0.536052
0.512831
0.486975
0.478445
0.408631
0.242181
0.205748
0.200669
0.200148
0.200407
0.200826
0.212558
0.437872
0.486601
0.48201
0.465139
0.308023
0.203204
0.201693
0.202042
0.215483
0.448556
0.483207
0.484699
0.485223
0.48597
0.487747
0.491501
0.498314
0.507314
0.515049
0.520517
0.523813
0.525311
0.525407
0.524448
0.522717
0.520438
0.517772
0.514823
0.511598
0.508083
0.504181
0.499673
0.494027
0.48602
0.477535
0.423364
0.215668
0.207636
0.231293
0.430508
0.471933
0.471915
0.468477
0.460837
0.409932
0.23736
0.252523
0.208446
0.20092
0.227584
0.414548
0.455648
0.45689
0.458176
0.459013
0.459114
0.458702
0.457984
0.457095
0.456126
0.455139
0.454168
0.453188
0.452065
0.450751
0.449249
0.44758
0.445829
0.44395
0.441938
0.439771
0.437416
0.434818
0.431913
0.428701
0.425784
0.423074
0.420523
0.418043
0.415145
0.411692
0.407659
0.40297
0.39711
0.388673
0.369468
0.240959
0.202363
0.200063
0.200001
0.2
0.2
0.2
0.2
0.2
0.2
0.2
0.2
0.2
0.2
0.2
0.2
0.2
0.200026
0.200566
0.214695
0.252947
0.321689
0.405962
0.410279
0.414091
0.417282
0.420512
0.424296
0.428246
0.432391
0.436424
0.439888
0.441532
0.698511
0.695233
0.690201
0.683425
0.675179
0.666078
0.656852
0.647869
0.639203
0.630806
0.622608
0.614396
0.606074
0.597219
0.586928
0.576538
0.565237
0.551422
0.519462
0.484098
0.466981
0.457814
0.262953
0.20947
0.201193
0.2001
0.200008
0.200002
0.200004
0.200008
0.200217
0.249135
0.376516
0.457107
0.421632
0.23776
0.200818
0.200016
0.200014
0.200178
0.222327
0.455535
0.395047
0.351343
0.368681
0.428001
0.464183
0.494715
0.502737
0.509617
0.514978
0.518474
0.520165
0.520321
0.519267
0.517315
0.51474
0.511777
0.508613
0.505243
0.501728
0.498003
0.493868
0.488572
0.480606
0.361351
0.208991
0.200266
0.200073
0.200578
0.21477
0.441783
0.466893
0.459781
0.451825
0.389517
0.210573
0.200952
0.200112
0.200018
0.200256
0.203656
0.208495
0.409755
0.453805
0.454317
0.453798
0.452902
0.451833
0.450695
0.449557
0.448488
0.44756
0.446781
0.44577
0.444485
0.44298
0.441306
0.439538
0.437626
0.435569
0.433328
0.430845
0.427994
0.42454
0.420236
0.41741
0.414953
0.412939
0.41088
0.408432
0.405468
0.401947
0.39811
0.393103
0.385478
0.366418
0.231451
0.201644
0.200046
0.200001
0.2
0.2
0.2
0.2
0.2
0.2
0.2
0.2
0.2
0.2
0.2
0.2
0.2
0.20004
0.200567
0.204663
0.214075
0.222647
0.405598
0.409852
0.413528
0.41668
0.419902
0.423625
0.427557
0.431718
0.435808
0.439352
0.441088
0.694551
0.690798
0.684796
0.676341
0.665775
0.654264
0.643263
0.633076
0.623625
0.614711
0.606096
0.597508
0.588684
0.579191
0.568353
0.553822
0.537261
0.513891
0.45725
0.441265
0.328567
0.225156
0.202683
0.200217
0.20002
0.200002
0.2
0.2
0.2
0.2
0.200006
0.201235
0.281304
0.439849
0.369546
0.219456
0.200413
0.200005
0.2
0.200002
0.368097
0.426356
0.292076
0.208425
0.215799
0.384019
0.441752
0.491887
0.499919
0.50619
0.511125
0.514364
0.515816
0.515637
0.514102
0.51154
0.508301
0.504491