/*--------------------------------*- C++ -*----------------------------------*\
| =========                 |                                                 |
| \\      /  F ield         | OpenFOAM: The Open Source CFD Toolbox           |
|  \\    /   O peration     | Version:  2.1.0                                 |
|   \\  /    A nd           | Web:      www.OpenFOAM.org                      |
|    \\/     M anipulation  |                                                 |
\*---------------------------------------------------------------------------*/
FoamFile
{
    version     2.0;
    format      ascii;
    class       volScalarField;
    location    "36135";
    object      kr_o;
}
// * * * * * * * * * * * * * * * * * * * * * * * * * * * * * * * * * * * * * //

dimensions      [0 0 0 0 0 0 0];

internalField   nonuniform List<scalar> 
15000
(
1.27259e-13
3.9427e-08
1.10484e-06
3.22422e-05
0.000254774
0.000920678
0.00212631
0.00379505
0.00581151
0.00808595
0.0105567
0.0131804
0.0159236
0.0187589
0.0216626
0.0246143
0.0275955
0.0305902
0.0335844
0.0365662
0.0395256
0.0424549
0.0453483
0.0482019
0.0510132
0.0537808
0.0565047
0.0591854
0.061825
0.0644263
0.0669922
0.0695253
0.0720279
0.074502
0.0769497
0.0793731
0.0817741
0.084155
0.0865178
0.088865
0.0911986
0.093521
0.0958342
0.0981401
0.10044
0.102736
0.105028
0.107318
0.109605
0.111891
0.114174
0.116454
0.118731
0.121004
0.12327
0.125528
0.127776
0.130013
0.132236
0.134444
0.136636
0.138811
0.140966
0.143102
0.145217
0.147312
0.149387
0.151441
0.153477
0.155493
0.157492
0.159473
0.161438
0.163388
0.165324
0.167247
0.169158
0.171057
0.172947
0.174826
0.176697
0.178561
0.180417
0.182267
0.184111
0.185949
0.187781
0.189607
0.191427
0.193241
0.195049
0.196849
0.198643
0.200428
0.202204
0.20397
0.205725
0.207466
0.209194
0.210906
0.212599
0.214274
0.215926
0.217555
0.219159
0.220734
0.222278
0.223791
0.225271
0.226716
0.228126
0.229499
0.230838
0.232143
0.233415
0.234656
0.235867
0.23705
0.238208
0.239345
0.240471
0.241605
0.242771
0.244006
0.245352
0.246856
0.248536
0.250338
0.252075
0.253503
0.254577
0.255339
0.255868
0.2564
0.256941
0.257498
0.258076
0.258682
0.259319
0.259996
0.260723
0.261522
0.262418
0.263453
0.264687
0.266216
0.268211
0.271037
0.275759
0.291321
7.85219e-09
2.06696e-07
5.63993e-06
8.09172e-05
0.000430376
0.0012604
0.00259758
0.00434918
0.0064135
0.00871496
0.0112012
0.0138338
0.0165824
0.0194213
0.0223282
0.0252829
0.0282673
0.0312654
0.0342631
0.0372484
0.0402113
0.0431443
0.0460417
0.0488994
0.0517146
0.0544857
0.0572124
0.0598954
0.0625371
0.0651407
0.067709
0.0702443
0.0727486
0.0752239
0.0776719
0.0800945
0.082494
0.0848723
0.087232
0.0895754
0.091905
0.0942229
0.0965313
0.0988322
0.101127
0.103417
0.105704
0.107988
0.110271
0.112552
0.114831
0.117109
0.119384
0.121654
0.12392
0.126178
0.128427
0.130665
0.13289
0.135101
0.137297
0.139475
0.141634
0.143774
0.145894
0.147993
0.150072
0.152131
0.15417
0.156191
0.158194
0.160179
0.162148
0.164102
0.166042
0.167969
0.169884
0.171788
0.173681
0.175565
0.177441
0.17931
0.181172
0.183028
0.184879
0.186724
0.188564
0.190399
0.192229
0.194054
0.195874
0.197688
0.199497
0.201299
0.203094
0.204882
0.206661
0.20843
0.210188
0.211934
0.213667
0.215386
0.21709
0.218777
0.220446
0.222096
0.223728
0.225341
0.226936
0.228515
0.23008
0.231634
0.233183
0.234733
0.236289
0.237859
0.23945
0.241066
0.24271
0.244388
0.246118
0.247945
0.249945
0.252235
0.254967
0.258315
0.262402
0.267107
0.271706
0.27507
0.277267
0.278553
0.279196
0.279579
0.279718
0.279659
0.279509
0.279309
0.279028
0.278611
0.27803
0.277318
0.27655
0.275828
0.27527
0.275015
0.275254
0.276355
0.279375
0.293349
1.04936e-06
5.62582e-06
4.45209e-05
0.000244719
0.000811021
0.0018524
0.00333398
0.00516773
0.00727502
0.00959821
0.0120952
0.0147332
0.0174847
0.0203257
0.0232344
0.0261911
0.0291779
0.0321787
0.0351793
0.0381676
0.0411337
0.0440698
0.04697
0.0498299
0.0526468
0.0554188
0.0581459
0.0608291
0.063471
0.0660744
0.0686419
0.0711754
0.0736767
0.0761477
0.0785902
0.0810064
0.0833982
0.0857682
0.0881189
0.0904525
0.0927716
0.0950786
0.0973757
0.099665
0.101948
0.104227
0.106503
0.108778
0.111051
0.113325
0.115598
0.11787
0.120141
0.122409
0.124672
0.12693
0.129179
0.131419
0.133647
0.135861
0.13806
0.140243
0.142406
0.144551
0.146675
0.148778
0.150861
0.152924
0.154967
0.156991
0.158997
0.160985
0.162957
0.164914
0.166857
0.168786
0.170704
0.172611
0.174507
0.176395
0.178274
0.180147
0.182013
0.183874
0.18573
0.187582
0.189429
0.191273
0.193113
0.194948
0.19678
0.198609
0.200433
0.202254
0.20407
0.205882
0.207688
0.209488
0.211281
0.213067
0.214845
0.216616
0.218379
0.220133
0.22188
0.223621
0.225357
0.227091
0.228827
0.230572
0.232332
0.234119
0.235946
0.23783
0.239795
0.241869
0.244079
0.246445
0.248963
0.251608
0.25439
0.257384
0.26075
0.264736
0.269689
0.276038
0.284189
0.29414
0.303932
0.309651
0.312934
0.314681
0.315421
0.315361
0.314484
0.312902
0.311114
0.309275
0.307242
0.304797
0.30184
0.298483
0.294919
0.291391
0.288128
0.285338
0.283236
0.282187
0.283231
0.295518
3.04133e-05
7.77268e-05
0.00023981
0.00066927
0.00149517
0.0027375
0.00434212
0.00624235
0.00838303
0.010722
0.0132261
0.0158671
0.0186202
0.0214625
0.0243729
0.0273318
0.0303213
0.0333253
0.0363294
0.0393213
0.0422909
0.04523
0.0481326
0.050994
0.0538113
0.0565827
0.0593084
0.0619897
0.0646293
0.0672296
0.0697927
0.0723203
0.0748141
0.077276
0.079708
0.0821122
0.0844911
0.086847
0.0891824
0.0914999
0.0938019
0.0960913
0.0983705
0.100642
0.102907
0.105169
0.10743
0.109689
0.11195
0.114212
0.116475
0.11874
0.121004
0.123268
0.125529
0.127785
0.130035
0.132277
0.134508
0.136726
0.13893
0.141117
0.143286
0.145435
0.147564
0.149671
0.151758
0.153824
0.15587
0.157896
0.159904
0.161894
0.163868
0.165826
0.16777
0.169702
0.171621
0.173529
0.175427
0.177317
0.179198
0.181074
0.182943
0.184808
0.186668
0.188526
0.19038
0.192232
0.194081
0.195928
0.197772
0.199616
0.201458
0.203298
0.205138
0.206975
0.208811
0.210646
0.212478
0.214309
0.216138
0.217968
0.219798
0.221631
0.223468
0.225313
0.227171
0.229049
0.230954
0.2329
0.234902
0.236984
0.239177
0.241525
0.244092
0.246963
0.250231
0.253947
0.25805
0.262354
0.266787
0.27146
0.276656
0.282817
0.290568
0.300741
0.314331
0.33217
0.349612
0.355661
0.358937
0.360737
0.361577
0.360984
0.358654
0.354457
0.350244
0.346371
0.342303
0.337385
0.3313
0.324367
0.317009
0.309702
0.30288
0.296866
0.291913
0.288365
0.287232
0.29781
0.000238313
0.00040881
0.000784907
0.00147355
0.0025232
0.00391672
0.00560964
0.00755707
0.00972149
0.0120718
0.0145811
0.0172247
0.0199798
0.0228243
0.0257376
0.0287002
0.0316941
0.034703
0.0377122
0.0407092
0.0436834
0.0466265
0.0495319
0.0523947
0.0552117
0.0579817
0.0607047
0.0633825
0.0660175
0.0686117
0.0711668
0.0736845
0.0761664
0.0786144
0.0810309
0.083418
0.0857782
0.0881138
0.0904276
0.092722
0.0950001
0.0972648
0.099519
0.101766
0.104007
0.106246
0.108485
0.110725
0.112968
0.115214
0.117465
0.119718
0.121974
0.124232
0.12649
0.128745
0.130996
0.13324
0.135475
0.137698
0.139907
0.1421
0.144275
0.146429
0.148563
0.150676
0.152766
0.154835
0.156883
0.15891
0.160919
0.16291
0.164884
0.166843
0.168788
0.170719
0.172639
0.174547
0.176446
0.178336
0.180218
0.182095
0.183966
0.185833
0.187697
0.189559
0.19142
0.193279
0.195138
0.196997
0.198854
0.200713
0.202574
0.204436
0.2063
0.208166
0.210035
0.211907
0.213782
0.215663
0.21755
0.219445
0.221351
0.223271
0.225211
0.227176
0.229174
0.231218
0.233322
0.235509
0.237807
0.240262
0.242937
0.245933
0.249405
0.253568
0.258662
0.264801
0.271714
0.278598
0.285219
0.291818
0.298899
0.30716
0.317542
0.331347
0.350397
0.377666
0.400668
0.402055
0.404985
0.406565
0.407725
0.407389
0.404492
0.396847
0.390213
0.385279
0.380315
0.373719
0.364526
0.35363
0.341856
0.329984
0.318867
0.309068
0.300891
0.294635
0.291243
0.300201
0.000859265
0.00119152
0.00177887
0.00267012
0.00387244
0.00536418
0.00711445
0.00909351
0.0112748
0.0136341
0.0161488
0.0187967
0.0215559
0.0244054
0.0273245
0.0302938
0.0332953
0.0363121
0.0393294
0.0423343
0.0453157
0.0482647
0.0511743
0.0540393
0.0568567
0.0596249
0.0623446
0.0650177
0.0676458
0.0702309
0.0727743
0.0752779
0.0777434
0.080173
0.0825689
0.0849335
0.087269
0.0895779
0.091863
0.0941272
0.0963738
0.0986062
0.100828
0.103042
0.105252
0.107462
0.109672
0.111887
0.114107
0.116334
0.118567
0.120807
0.123053
0.125304
0.127557
0.129811
0.132064
0.134311
0.136551
0.13878
0.140996
0.143196
0.145378
0.147539
0.149679
0.151796
0.15389
0.155962
0.158011
0.16004
0.162049
0.164039
0.166013
0.167971
0.169915
0.171846
0.173764
0.175671
0.177569
0.179457
0.181339
0.183215
0.185087
0.186956
0.188822
0.190688
0.192554
0.194421
0.196289
0.198159
0.200032
0.201907
0.203787
0.205671
0.207562
0.209459
0.211363
0.213275
0.215198
0.217133
0.219082
0.22105
0.22304
0.225058
0.227111
0.229211
0.231368
0.233602
0.235938
0.238409
0.241068
0.243992
0.247307
0.251217
0.256048
0.262274
0.270435
0.280782
0.292516
0.302837
0.311679
0.319806
0.328119
0.337593
0.349402
0.365137
0.387192
0.421401
0.431841
0.470773
0.511492
0.54146
0.541271
0.516576
0.480091
0.412306
0.408777
0.407539
0.405923
0.401981
0.392971
0.380522
0.366032
0.350009
0.334561
0.320918
0.309527
0.300631
0.295094
0.302662
0.0019816
0.00244672
0.00318197
0.00420047
0.00549466
0.0070459
0.0088326
0.0108336
0.0130285
0.0153974
0.01792
0.0205756
0.0233432
0.0262021
0.0291317
0.0321127
0.0351265
0.0381562
0.0411863
0.0442034
0.0471959
0.0501543
0.053071
0.0559406
0.0587598
0.0615272
0.0642437
0.0669107
0.0695297
0.0721022
0.0746302
0.0771156
0.0795603
0.0819667
0.084337
0.0866732
0.0889777
0.091253
0.0935018
0.0957278
0.0979346
0.100126
0.102307
0.104481
0.106652
0.108824
0.111
0.113182
0.115373
0.117575
0.119787
0.12201
0.124243
0.126485
0.128734
0.130987
0.133241
0.135493
0.137739
0.139977
0.142202
0.144411
0.146602
0.148772
0.150918
0.153041
0.155139
0.157213
0.159264
0.161293
0.163301
0.16529
0.167263
0.169219
0.17116
0.173089
0.175004
0.176909
0.178804
0.18069
0.182569
0.184443
0.186314
0.188182
0.19005
0.191918
0.193789
0.195663
0.19754
0.199422
0.20131
0.203201
0.205101
0.207009
0.208928
0.210857
0.212799
0.214755
0.216729
0.218722
0.22074
0.222786
0.224868
0.226993
0.229173
0.231421
0.233758
0.236208
0.23881
0.241617
0.244713
0.248232
0.252397
0.257584
0.264411
0.273788
0.286788
0.304017
0.323886
0.337529
0.347507
0.355887
0.364078
0.373212
0.384449
0.399256
0.419922
0.455129
0.517335
0.562471
0.5625
0.5625
0.56237
0.556274
0.553408
0.541687
0.531764
0.524294
0.500723
0.467202
0.404271
0.395815
0.384187
0.366138
0.347531
0.33094
0.317005
0.305943
0.298608
0.305172
0.00352743
0.00407929
0.00490275
0.00599436
0.00734198
0.00892999
0.0107418
0.0127608
0.01497
0.0173517
0.019887
0.0225561
0.0253385
0.0282134
0.0311604
0.0341599
0.0371931
0.0402425
0.0432922
0.046328
0.0493376
0.0523108
0.0552395
0.0581177
0.0609418
0.0637106
0.0664245
0.0690841
0.0716912
0.0742477
0.0767561
0.0792188
0.0816382
0.0840165
0.0863557
0.0886576
0.0909243
0.0931583
0.0953629
0.0975418
0.0996997
0.101841
0.103972
0.106096
0.108218
0.110343
0.112475
0.114617
0.116772
0.118942
0.121128
0.12333
0.125548
0.12778
0.130024
0.132276
0.134533
0.136791
0.139046
0.141295
0.143531
0.145753
0.147955
0.150135
0.152291
0.15442
0.156523
0.1586
0.160652
0.16268
0.164687
0.166674
0.168643
0.170596
0.172534
0.174459
0.176371
0.178271
0.180161
0.182043
0.183918
0.185788
0.187656
0.189522
0.191389
0.19326
0.195134
0.197014
0.1989
0.200794
0.202696
0.204604
0.206524
0.208458
0.210405
0.212369
0.214351
0.216354
0.218382
0.220439
0.22253
0.224661
0.226843
0.229085
0.231403
0.233816
0.236351
0.239046
0.241955
0.245159
0.24879
0.253063
0.258349
0.265286
0.274914
0.288763
0.308692
0.336109
0.369414
0.383306
0.391963
0.398802
0.405369
0.412625
0.421433
0.432944
0.449307
0.483212
0.546097
0.561718
0.562491
0.5625
0.5625
0.562462
0.562425
0.562256
0.562084
0.561978
0.55373
0.54818
0.478096
0.433047
0.388344
0.371975
0.354557
0.337682
0.322671
0.310278
0.301666
0.307729
0.00537889
0.00598412
0.00685885
0.00799333
0.00937454
0.0109888
0.0128222
0.0148604
0.0170882
0.019489
0.0220446
0.0247355
0.0275414
0.0304414
0.0334151
0.0364426
0.0395045
0.042583
0.0456615
0.0487251
0.0517606
0.054757
0.0577053
0.0605988
0.0634334
0.0662071
0.0689191
0.0715701
0.0741622
0.0766985
0.0791826
0.0816178
0.0840069
0.0863518
0.0886543
0.0909156
0.0931373
0.0953219
0.0974729
0.0995949
0.101693
0.103773
0.105842
0.107904
0.109967
0.112034
0.114112
0.116204
0.118314
0.120444
0.122598
0.124774
0.126973
0.129193
0.131431
0.133682
0.135944
0.138211
0.140478
0.142741
0.144994
0.147231
0.149448
0.151642
0.15381
0.155948
0.158057
0.160137
0.162189
0.164216
0.16622
0.168203
0.170168
0.172117
0.174051
0.175971
0.177877
0.179772
0.181656
0.183531
0.1854
0.187264
0.189126
0.190988
0.192853
0.194723
0.1966
0.198485
0.20038
0.202285
0.204202
0.206131
0.208072
0.21003
0.212008
0.214008
0.216032
0.218085
0.22017
0.222294
0.224463
0.226686
0.228975
0.231345
0.233814
0.23641
0.239169
0.242142
0.245407
0.249084
0.25337
0.2586
0.265351
0.274609
0.287944
0.307585
0.336148
0.375936
0.427632
0.435465
0.441094
0.445366
0.449507
0.454113
0.459596
0.466603
0.476988
0.510036
0.557245
0.562339
0.562498
0.5625
0.5625
0.5625
0.562499
0.562498
0.562496
0.562496
0.562383
0.562302
0.559886
0.461709
0.389816
0.374561
0.358312
0.34193
0.326696
0.313645
0.304259
0.310358
0.00744165
0.00808112
0.00898864
0.0101524
0.0115598
0.0131986
0.0150562
0.0171195
0.019374
0.0218035
0.02439
0.0271139
0.0299548
0.032892
0.0359046
0.0389722
0.0420755
0.0451957
0.0483157
0.0514197
0.0544939
0.057526
0.0605058
0.0634253
0.066279
0.0690626
0.0717741
0.0744148
0.076988
0.0794988
0.0819527
0.0843546
0.0867077
0.089014
0.0912741
0.0934882
0.0956573
0.0977834
0.0998703
0.101923
0.103949
0.105954
0.107946
0.109933
0.111921
0.113917
0.115927
0.117956
0.12001
0.122092
0.124205
0.126349
0.128525
0.13073
0.132961
0.135213
0.137482
0.139761
0.142044
0.144326
0.146599
0.148858
0.151097
0.15331
0.155493
0.157643
0.159759
0.161843
0.163895
0.165919
0.167919
0.169897
0.171858
0.173801
0.17573
0.177643
0.179543
0.181431
0.183307
0.185173
0.187032
0.188887
0.190741
0.192596
0.194457
0.196324
0.198202
0.200091
0.201992
0.203909
0.20584
0.207789
0.209751
0.211736
0.213746
0.215784
0.217854
0.21996
0.222108
0.224305
0.226559
0.228882
0.231289
0.233798
0.236435
0.239235
0.242246
0.245539
0.249222
0.253469
0.258566
0.265008
0.273642
0.285879
0.303859
0.330339
0.367881
0.417238
0.475154
0.520553
0.549267
0.560337
0.562262
0.561819
0.558973
0.55565
0.537643
0.554762
0.562127
0.562496
0.5625
0.5625
0.5625
0.5625
0.5625
0.5625
0.5625
0.5625
0.562499
0.562498
0.562462
0.406143
0.390018
0.376253
0.360135
0.344558
0.329515
0.316232
0.306459
0.313107
0.00964866
0.0103131
0.0112463
0.0124361
0.0138707
0.0155387
0.0174285
0.0195272
0.0218204
0.024292
0.0269235
0.0296951
0.0325863
0.0355759
0.0386429
0.0417667
0.0449275
0.0481062
0.0512851
0.0544478
0.0575793
0.0606659
0.0636957
0.0666581
0.0695432
0.0723442
0.0750579
0.0776861
0.0802347
0.0827123
0.085128
0.087489
0.0897997
0.0920616
0.0942736
0.0964342
0.0985425
0.1006
0.10261
0.104579
0.106516
0.108428
0.110327
0.112219
0.114115
0.116021
0.117946
0.119896
0.121879
0.123899
0.125961
0.128065
0.130212
0.1324
0.134623
0.136876
0.139154
0.14145
0.143755
0.146063
0.148364
0.150653
0.15292
0.155159
0.15737
0.159546
0.161678
0.163766
0.165817
0.167837
0.169831
0.171803
0.173757
0.175696
0.177619
0.179527
0.18142
0.1833
0.185166
0.187022
0.188869
0.190712
0.192553
0.194398
0.19625
0.198112
0.199987
0.201877
0.203785
0.205711
0.207658
0.209625
0.21161
0.213622
0.215665
0.217744
0.219861
0.222024
0.224238
0.226513
0.228859
0.23129
0.233826
0.23649
0.239314
0.242345
0.245646
0.249313
0.253496
0.258438
0.264544
0.272515
0.283533
0.299495
0.323092
0.357291
0.4035
0.458352
0.509971
0.552511
0.562084
0.562497
0.5625
0.562499
0.562434
0.562421
0.56244
0.56239
0.562494
0.5625
0.5625
0.5625
0.5625
0.5625
0.5625
0.5625
0.5625
0.5625
0.5625
0.5625
0.555956
0.405747
0.390793
0.37767
0.36195
0.34641
0.331588
0.318269
0.308372
0.316039
0.0119507
0.0126368
0.0135955
0.0148148
0.0162837
0.0179913
0.0199261
0.0220753
0.024424
0.0269553
0.0296502
0.0324884
0.0354489
0.0385103
0.0416515
0.0448519
0.0480915
0.0513512
0.0546132
0.0578606
0.0610771
0.0642473
0.0673555
0.0703851
0.0733213
0.0761527
0.0788738
0.081487
0.0840022
0.0864344
0.0887991
0.0911084
0.0933686
0.0955801
0.0977391
0.0998402
0.101879
0.103856
0.105773
0.107639
0.109465
0.111261
0.113042
0.114816
0.116595
0.118388
0.120205
0.122054
0.123946
0.125887
0.127883
0.129937
0.132047
0.134212
0.136426
0.138682
0.140973
0.14329
0.145625
0.147967
0.150308
0.152637
0.154945
0.157241
0.159506
0.161725
0.163888
0.165991
0.168039
0.170051
0.172034
0.173996
0.175941
0.177871
0.179787
0.181688
0.183572
0.185441
0.187294
0.189134
0.190963
0.192786
0.194609
0.196436
0.198273
0.200124
0.201993
0.203883
0.205795
0.207731
0.209691
0.211679
0.213694
0.215734
0.217811
0.219931
0.222099
0.224321
0.226607
0.228966
0.231413
0.233966
0.236647
0.239487
0.242528
0.245828
0.249472
0.253588
0.25838
0.264179
0.271546
0.281434
0.295426
0.315951
0.346166
0.388743
0.442414
0.496909
0.531213
0.560392
0.562494
0.5625
0.5625
0.5625
0.5625
0.5625
0.5625
0.562499
0.5625
0.5625
0.5625
0.5625
0.5625
0.5625
0.5625
0.5625
0.5625
0.5625
0.5625
0.562434
0.532123
0.407217
0.392082
0.379015
0.363557
0.348158
0.333241
0.319949
0.310102
0.319226
0.0143087
0.0150169
0.0160056
0.0172629
0.0187783
0.0205411
0.0225395
0.0247597
0.0271859
0.0297999
0.0325817
0.0355101
0.0385638
0.0417214
0.0449619
0.048265
0.0516115
0.0549831
0.0583623
0.0617323
0.0650758
0.0683733
0.0716023
0.074739
0.0777603
0.0806468
0.0833868
0.0859817
0.0884484
0.0908135
0.0931056
0.0953457
0.0975438
0.0996988
0.101801
0.103839
0.1058
0.107681
0.109484
0.11122
0.112904
0.114552
0.116181
0.117804
0.119434
0.121081
0.122757
0.124474
0.126247
0.128084
0.129995
0.131982
0.134046
0.136182
0.138384
0.140645
0.142953
0.145299
0.147672
0.150062
0.152456
0.154843
0.157235
0.159613
0.16195
0.16423
0.166436
0.16856
0.170603
0.172601
0.174567
0.176514
0.178447
0.18037
0.18228
0.184175
0.186052
0.187909
0.189747
0.191566
0.193372
0.195168
0.196963
0.198763
0.200578
0.202412
0.20427
0.206156
0.208071
0.210016
0.211992
0.214
0.216044
0.218112
0.220227
0.222395
0.22462
0.226912
0.229281
0.23174
0.234306
0.237002
0.239856
0.242907
0.246208
0.249835
0.253898
0.258566
0.264111
0.270976
0.279915
0.292192
0.309851
0.335864
0.373619
0.424555
0.482587
0.530128
0.543373
0.562051
0.562498
0.5625
0.5625
0.5625
0.5625
0.5625
0.5625
0.5625
0.5625
0.5625
0.5625
0.5625
0.5625
0.5625
0.5625
0.5625
0.5625
0.5625
0.562499
0.562099
0.520363
0.40887
0.393474
0.380276
0.364942
0.349642
0.334782
0.321495
0.311849
0.322688
0.0166888
0.0174227
0.0184496
0.019758
0.0213375
0.0231769
0.0252634
0.0275819
0.0301142
0.0328404
0.0357387
0.0387871
0.041964
0.0452481
0.0486195
0.0520595
0.0555507
0.0590768
0.0626225
0.0661718
0.0697043
0.0731949
0.0766137
0.0799269
0.0831887
0.086283
0.0890694
0.0916422
0.0940292
0.0962807
0.0984527
0.100585
0.102696
0.104783
0.106824
0.108791
0.11066
0.112418
0.114067
0.115621
0.117103
0.118541
0.119957
0.12137
0.122792
0.124237
0.125717
0.127252
0.128857
0.130551
0.132343
0.134239
0.136238
0.138336
0.140522
0.142786
0.145117
0.147501
0.149926
0.152379
0.154847
0.157328
0.159838
0.162338
0.164801
0.167195
0.169484
0.171644
0.173675
0.175647
0.177584
0.179506
0.181423
0.183337
0.185244
0.187137
0.189008
0.190855
0.192675
0.194468
0.19624
0.197997
0.199749
0.201508
0.203286
0.205092
0.206931
0.208808
0.210723
0.212676
0.214669
0.216701
0.218774
0.220889
0.223046
0.225267
0.227558
0.229932
0.2324
0.234981
0.237694
0.240569
0.243641
0.246959
0.250589
0.254626
0.259213
0.26457
0.271053
0.279248
0.290146
0.305388
0.327538
0.360021
0.405817
0.463032
0.517841
0.550921
0.56148
0.562479
0.5625
0.5625
0.5625
0.5625
0.5625
0.5625
0.5625
0.5625
0.5625
0.5625
0.5625
0.5625
0.5625
0.5625
0.5625
0.5625
0.5625
0.5625
0.562498
0.561991
0.499836
0.409997
0.394649
0.381379
0.366164
0.350961
0.336193
0.322993
0.313761
0.326458
0.0190612
0.0198265
0.0209033
0.0222805
0.0239474
0.0258921
0.0280998
0.0305522
0.033228
0.0361039
0.0391562
0.0423616
0.0456987
0.0491475
0.0526906
0.0563125
0.0600001
0.063742
0.0675264
0.0713366
0.0751511
0.0789412
0.0828099
0.0869015
0.0910105
0.0949705
0.0984804
0.100991
0.103143
0.10505
0.106859
0.10867
0.110527
0.11243
0.114329
0.116154
0.11784
0.119356
0.1207
0.121894
0.122982
0.124017
0.125043
0.126082
0.127148
0.128252
0.129408
0.130641
0.131978
0.133441
0.135046
0.1368
0.138699
0.140734
0.142892
0.145157
0.147513
0.149944
0.152435
0.154972
0.157541
0.160186
0.16287
0.165576
0.168274
0.170909
0.173394
0.175638
0.177645
0.179564
0.181443
0.183316
0.185202
0.187104
0.18901
0.190904
0.192773
0.194607
0.196401
0.198155
0.199872
0.201562
0.20324
0.204926
0.20664
0.208394
0.210197
0.212054
0.213963
0.215923
0.217933
0.219992
0.222102
0.224266
0.22647
0.228755
0.231132
0.233615
0.236219
0.238965
0.241878
0.244993
0.248353
0.252019
0.256072
0.260631
0.265879
0.2721
0.279754
0.289611
0.30296
0.321909
0.349567
0.389498
0.44274
0.500462
0.54205
0.558927
0.562343
0.562496
0.5625
0.5625
0.5625
0.5625
0.5625
0.5625
0.5625
0.5625
0.5625
0.5625
0.5625
0.5625
0.5625
0.5625
0.5625
0.5625
0.5625
0.5625
0.562495
0.56165
0.427903
0.409764
0.395471
0.382347
0.367301
0.352203
0.337549
0.324501
0.315872
0.330614
0.0213983
0.0222027
0.0233448
0.024814
0.0265995
0.0286878
0.0310606
0.0336946
0.0365627
0.0396367
0.04289
0.0462986
0.0498421
0.0535041
0.057272
0.0611371
0.0650944
0.069139
0.0732636
0.0774574
0.0817042
0.0862265
0.0913111
0.0968326
0.102857
0.108991
0.114747
0.117754
0.119401
0.120438
0.121335
0.12235
0.123626
0.12517
0.126869
0.128525
0.129938
0.131024
0.131771
0.13222
0.132467
0.132651
0.13287
0.133163
0.133535
0.133988
0.134533
0.135204
0.136042
0.137086
0.138356
0.139857
0.141578
0.1435
0.145598
0.147848
0.150226
0.152711
0.155285
0.157932
0.160642
0.163499
0.166465
0.169541
0.172713
0.175908
0.178904
0.181358
0.18332
0.185119
0.186864
0.188628
0.19045
0.192333
0.19425
0.196161
0.198036
0.199859
0.20162
0.203311
0.204933
0.206498
0.208031
0.209571
0.211152
0.2128
0.214527
0.216337
0.218227
0.220189
0.222219
0.224313
0.226472
0.228699
0.23099
0.233362
0.235854
0.238482
0.241266
0.244231
0.247408
0.250838
0.254575
0.258689
0.263284
0.268509
0.274594
0.281904
0.291036
0.302996
0.319478
0.343161
0.377627
0.425597
0.482806
0.531001
0.55484
0.561509
0.562478
0.5625
0.5625
0.5625
0.5625
0.5625
0.5625
0.5625
0.5625
0.5625
0.5625
0.5625
0.5625
0.5625
0.5625
0.5625
0.5625
0.5625
0.5625
0.5625
0.562491
0.56058
0.428217
0.410644
0.396617
0.383445
0.368487
0.353463
0.338918
0.32607
0.318216
0.335255
0.0236815
0.0245396
0.0257689
0.0273585
0.0292952
0.0315605
0.0341334
0.0370494
0.0401803
0.0435152
0.0470289
0.050698
0.0545062
0.0584439
0.0625082
0.0667018
0.0710296
0.0754978
0.0801145
0.0848888
0.0899904
0.0962679
0.103731
0.112487
0.122858
0.133155
0.144295
0.148291
0.148871
0.147597
0.146209
0.145336
0.145365
0.146374
0.148256
0.151236
0.152418
0.152809
0.152389
0.151221
0.149533
0.147779
0.146238
0.144978
0.143955
0.143116
0.142451
0.142004
0.14186
0.142086
0.142716
0.14374
0.145127
0.146832
0.148807
0.151007
0.153393
0.155935
0.158608
0.161399
0.164369
0.167533
0.170933
0.174631
0.178697
0.183104
0.18737
0.190217
0.192072
0.193564
0.194982
0.196483
0.19816
0.200025
0.202004
0.203985
0.205908
0.207744
0.209473
0.211075
0.212537
0.213864
0.215102
0.216338
0.217645
0.219072
0.220642
0.222356
0.224202
0.22616
0.228218
0.230363
0.232594
0.234914
0.237333
0.239809
0.242452
0.245279
0.248309
0.251568
0.255092
0.258929
0.263148
0.267839
0.273135
0.279227
0.286402
0.295126
0.306181
0.320911
0.341581
0.371551
0.414312
0.468805
0.520449
0.550165
0.560153
0.562248
0.562497
0.5625
0.5625
0.5625
0.5625
0.5625
0.5625
0.5625
0.5625
0.5625
0.5625
0.5625
0.5625
0.5625
0.5625
0.5625
0.5625
0.5625
0.5625
0.5625
0.562477
0.552912
0.430749
0.41245
0.398191
0.384798
0.369823
0.354818
0.34036
0.327747
0.320829
0.340515
0.025895
0.0268297
0.0281809
0.0299385
0.0320856
0.0345962
0.0374382
0.0406244
0.0440407
0.0476985
0.0517101
0.0557139
0.0598612
0.0641579
0.0686157
0.0732515
0.0780889
0.0831611
0.0885133
0.0942074
0.101671
0.111389
0.124003
0.137965
0.15481
0.167559
0.183388
0.186616
0.18633
0.18137
0.176835
0.173515
0.172173
0.173222
0.178567
0.186435
0.189727
0.189815
0.188006
0.184213
0.178713
0.173122
0.168321
0.164367
0.16099
0.157937
0.155111
0.15259
0.150584
0.149267
0.148703
0.148859
0.149647
0.150965
0.152714
0.154808
0.157179
0.159777
0.162571
0.165548
0.168806
0.172392
0.176414
0.18105
0.186599
0.193207
0.200031
0.203122
0.204722
0.205466
0.206198
0.207174
0.208608
0.210544
0.2132
0.215698
0.217785
0.219714
0.22146
0.222975
0.224199
0.225097
0.225728
0.226344
0.227092
0.228082
0.229355
0.230897
0.232669
0.234627
0.236733
0.238962
0.241302
0.243759
0.246348
0.249078
0.251917
0.254991
0.258325
0.261951
0.265912
0.270273
0.275125
0.280598
0.286874
0.294203
0.302929
0.31364
0.327393
0.346068
0.372798
0.411397
0.46254
0.51436
0.546857
0.55897
0.561935
0.56244
0.562499
0.5625
0.5625
0.5625
0.5625
0.5625
0.5625
0.5625
0.5625
0.5625
0.5625
0.5625
0.5625
0.5625
0.5625
0.5625
0.5625
0.5625
0.5625
0.562499
0.562234
0.542157
0.433639
0.414666
0.400094
0.386431
0.371372
0.356335
0.341928
0.329569
0.323747
0.346591
0.0280221
0.0290619
0.0305805
0.0325703
0.0350105
0.037862
0.0410763
0.0446287
0.0484178
0.0524296
0.0567908
0.0613671
0.0661555
0.0709321
0.0759107
0.0811459
0.0867018
0.092668
0.0991752
0.107288
0.118885
0.13591
0.156949
0.174074
0.194603
0.201275
0.206611
0.239222
0.250517
0.197093
0.194037
0.191481
0.190757
0.193329
0.203334
0.21704
0.221713
0.224031
0.223418
0.219663
0.211242
0.202082
0.194615
0.188696
0.183493
0.178357
0.173015
0.167626
0.162775
0.159019
0.156573
0.155382
0.155262
0.156004
0.157422
0.15936
0.161705
0.164373
0.167319
0.170533
0.174139
0.178223
0.182979
0.188755
0.196283
0.205723
0.215471
0.218084
0.21931
0.218702
0.218516
0.218803
0.220027
0.222395
0.228337
0.232179
0.23495
0.237168
0.239114
0.240684
0.241698
0.241927
0.241321
0.240719
0.240389
0.240572
0.241337
0.242618
0.244304
0.24629
0.248494
0.250857
0.253356
0.255996
0.258818
0.261856
0.265038
0.2685
0.272298
0.276456
0.281031
0.286117
0.291868
0.298516
0.306373
0.315776
0.32705
0.340947
0.359051
0.384196
0.420505
0.469256
0.517867
0.547593
0.558848
0.561824
0.562407
0.562486
0.5625
0.5625
0.5625
0.5625
0.5625
0.5625
0.5625
0.5625
0.5625
0.5625
0.5625
0.5625
0.5625
0.5625
0.5625
0.5625
0.5625
0.5625
0.5625
0.56247
0.561269
0.526846
0.43611
0.416969
0.402251
0.38837
0.3732
0.358081
0.343677
0.331566
0.326999
0.353789
0.0300508
0.0312313
0.0329777
0.0352911
0.0381459
0.0414797
0.0452081
0.04926
0.0535409
0.0580369
0.0628414
0.0678339
0.0732574
0.0791768
0.0848682
0.0909424
0.097558
0.104928
0.113389
0.127105
0.146419
0.174784
0.202044
0.213186
0.221349
0.397589
0.550058
0.555727
0.542691
0.514617
0.264106
0.205831
0.204806
0.209384
0.227295
0.235833
0.306018
0.480695
0.463291
0.287333
0.223128
0.216685
0.211801
0.208025
0.204239
0.19951
0.193236
0.185425
0.177301
0.170507
0.16571
0.162869
0.161667
0.161751
0.162816
0.164618
0.166978
0.169768
0.172919
0.176427
0.180392
0.184943
0.190356
0.197187
0.206828
0.218164
0.226636
0.249774
0.273494
0.232328
0.231167
0.230527
0.231612
0.236326
0.25061
0.257928
0.261005
0.263851
0.267042
0.269107
0.270258
0.26953
0.265681
0.262231
0.259493
0.257989
0.257812
0.258674
0.260255
0.26231
0.264665
0.267205
0.269871
0.272689
0.275776
0.279213
0.283028
0.287019
0.291431
0.296291
0.301687
0.307802
0.314965
0.323698
0.334668
0.348358
0.364707
0.384856
0.411794
0.449952
0.496512
0.534215
0.553311
0.560084
0.561981
0.562414
0.562491
0.5625
0.5625
0.5625
0.5625
0.5625
0.5625
0.5625
0.5625
0.5625
0.5625
0.5625
0.5625
0.5625
0.5625
0.5625
0.5625
0.5625
0.5625
0.5625
0.562498
0.562377
0.557593
0.460036
0.437208
0.419317
0.404751
0.390725
0.375412
0.360145
0.345664
0.333753
0.330583
0.362608
0.0319739
0.0333387
0.0353958
0.0381698
0.0416309
0.0456685
0.0501215
0.0548619
0.0597998
0.0649305
0.070313
0.0758958
0.081897
0.0886354
0.0962164
0.10356
0.111865
0.121673
0.135669
0.162347
0.189766
0.225068
0.236234
0.373935
0.547674
0.560499
0.562382
0.56245
0.562365
0.562097
0.554258
0.306793
0.225737
0.231816
0.255548
0.483896
0.561415
0.562179
0.561649
0.552357
0.282
0.226791
0.224595
0.223796
0.222654
0.220004
0.214524
0.204875
0.192462
0.182071
0.174817
0.170387
0.168209
0.167758
0.168604
0.170412
0.172926
0.17596
0.179398
0.183237
0.187502
0.192339
0.198072
0.205549
0.217195
0.228811
0.361261
0.557285
0.558152
0.540966
0.334686
0.244524
0.244277
0.251266
0.269267
0.406724
0.556086
0.53164
0.560954
0.561401
0.549709
0.384967
0.27934
0.276932
0.274297
0.272816
0.273064
0.274528
0.276749
0.279424
0.282347
0.28536
0.288362
0.2914
0.294849
0.298864
0.303457
0.308537
0.314017
0.32008
0.326953
0.335109
0.34539
0.359123
0.377818
0.402071
0.430716
0.466276
0.504351
0.534508
0.551561
0.558847
0.561418
0.562217
0.562438
0.562489
0.562499
0.5625
0.5625
0.5625
0.5625
0.5625
0.5625
0.5625
0.5625
0.5625
0.5625
0.5625
0.5625
0.5625
0.5625
0.5625
0.5625
0.5625
0.5625
0.5625
0.562499
0.562432
0.559125
0.467136
0.441003
0.422812
0.408029
0.393751
0.378183
0.36263
0.347962
0.336139
0.334412
0.373834
0.0337885
0.0353884
0.0378713
0.0413236
0.0457195
0.0508436
0.0563586
0.0620677
0.0678932
0.0738468
0.079988
0.0863626
0.0931967
0.100787
0.109808
0.120598
0.132045
0.146971
0.181857
0.231009
0.252868
0.270397
0.526157
0.559259
0.562309
0.562482
0.562499
0.5625
0.562499
0.562498
0.56242
0.534023
0.384073
0.262037
0.356524
0.546902
0.562358
0.562498
0.562496
0.56243
0.547773
0.2615
0.35274
0.420694
0.397329
0.301229
0.25013
0.209354
0.198273
0.188767
0.181412
0.176567
0.174059
0.173498
0.174468
0.176594
0.17955
0.18306
0.186898
0.19107
0.195504
0.2003
0.205745
0.213079
0.225469
0.439256
0.559544
0.56246
0.56248
0.562273
0.556395
0.301758
0.253613
0.270287
0.295104
0.450002
0.561282
0.562278
0.56249
0.562493
0.562449
0.561471