/*--------------------------------*- C++ -*----------------------------------*\
| =========                 |                                                 |
| \\      /  F ield         | OpenFOAM: The Open Source CFD Toolbox           |
|  \\    /   O peration     | Version:  2.1.0                                 |
|   \\  /    A nd           | Web:      www.OpenFOAM.org                      |
|    \\/     M anipulation  |                                                 |
\*---------------------------------------------------------------------------*/
FoamFile
{
    version     2.0;
    format      ascii;
    class       volScalarField;
    location    "36135";
    object      kr_w;
}
// * * * * * * * * * * * * * * * * * * * * * * * * * * * * * * * * * * * * * //

dimensions      [0 0 0 0 0 0 0];

internalField   nonuniform List<scalar> 
15000
(
0.5625
0.562499
0.562482
0.561973
0.558384
0.548103
0.531047
0.510165
0.488223
0.466757
0.446427
0.427452
0.409852
0.393569
0.378514
0.36459
0.351704
0.339766
0.328694
0.318411
0.308848
0.299939
0.291624
0.283848
0.27656
0.269716
0.263271
0.25719
0.251436
0.245977
0.240781
0.235823
0.231081
0.226535
0.222169
0.217967
0.213915
0.210002
0.206215
0.202545
0.198983
0.195519
0.192147
0.188859
0.185649
0.182513
0.179447
0.176446
0.173508
0.17063
0.167811
0.165048
0.162341
0.159691
0.157096
0.154556
0.152072
0.149644
0.147272
0.144956
0.142695
0.140489
0.138337
0.136239
0.134193
0.132198
0.130252
0.128353
0.1265
0.12469
0.122921
0.121192
0.119501
0.117846
0.116224
0.114636
0.113077
0.111549
0.110048
0.108573
0.107124
0.1057
0.104298
0.102918
0.10156
0.100224
0.0989073
0.097611
0.0963347
0.095078
0.0938408
0.0926229
0.0914244
0.0902454
0.0890861
0.087947
0.0868283
0.0857304
0.0846539
0.0835994
0.0825676
0.081559
0.0805742
0.0796139
0.0786789
0.07777
0.0768876
0.076032
0.0752035
0.0744023
0.0736281
0.0728804
0.0721582
0.0714606
0.0707862
0.070134
0.0695026
0.0688907
0.0682966
0.0677175
0.0671479
0.0665792
0.0659986
0.065389
0.0647299
0.064001
0.0631949
0.0623405
0.061527
0.060865
0.0603716
0.0600235
0.059783
0.0595419
0.0592976
0.0590472
0.0587879
0.0585177
0.0582344
0.0579351
0.0576146
0.0572648
0.0568743
0.0564262
0.0558961
0.0552454
0.0544062
0.0532365
0.0513306
0.0454567
0.5625
0.562497
0.562408
0.561181
0.555607
0.543106
0.524858
0.503815
0.48224
0.461318
0.441543
0.423072
0.405911
0.390001
0.375262
0.361605
0.348944
0.337199
0.326292
0.316153
0.306715
0.297916
0.289697
0.282007
0.274796
0.268021
0.261642
0.25562
0.249921
0.244512
0.239361
0.234446
0.229743
0.225235
0.220904
0.216738
0.212721
0.208842
0.205089
0.201452
0.197921
0.194488
0.191145
0.187886
0.184704
0.181595
0.178555
0.175579
0.172664
0.169808
0.167009
0.164265
0.161575
0.15894
0.15636
0.153833
0.151361
0.148944
0.146582
0.144274
0.142021
0.139822
0.137677
0.135585
0.133546
0.131556
0.129616
0.127722
0.125874
0.124069
0.122306
0.120582
0.118896
0.117245
0.115629
0.114044
0.112491
0.110966
0.109469
0.107999
0.106553
0.105132
0.103733
0.102356
0.101
0.0996647
0.0983494
0.0970536
0.095777
0.0945195
0.0932809
0.0920606
0.0908587
0.0896752
0.0885103
0.0873642
0.0862368
0.0851286
0.08404
0.0829714
0.0819229
0.0808947
0.0798871
0.0789005
0.0779352
0.0769911
0.0760676
0.0751644
0.0742808
0.0734155
0.0725667
0.0717321
0.0709088
0.0700939
0.0692838
0.068475
0.0676641
0.066849
0.0660289
0.0652014
0.0643578
0.0634775
0.0625258
0.0614525
0.0601934
0.0586813
0.0568813
0.0548692
0.0529631
0.051605
0.0507348
0.0502308
0.0499807
0.049832
0.0497783
0.0498013
0.0498595
0.0499369
0.0500458
0.0502083
0.0504353
0.0507144
0.0510173
0.0513034
0.0515253
0.0516272
0.0515317
0.0510945
0.0499111
0.044735
0.562483
0.562408
0.561773
0.558544
0.549751
0.534762
0.515657
0.494892
0.474068
0.453995
0.435016
0.417242
0.400673
0.385262
0.370942
0.35764
0.345281
0.333793
0.323108
0.313162
0.303892
0.295242
0.287156
0.279585
0.272483
0.265807
0.259519
0.253581
0.247958
0.242619
0.237534
0.23268
0.228037
0.223586
0.219311
0.215199
0.211234
0.207406
0.203702
0.200113
0.196628
0.19324
0.189941
0.186723
0.183582
0.180511
0.177507
0.174564
0.17168
0.168853
0.166079
0.163359
0.160691
0.158076
0.155513
0.153002
0.150544
0.148139
0.145788
0.14349
0.141246
0.139056
0.136919
0.134834
0.132802
0.13082
0.128886
0.127
0.125159
0.123362
0.121606
0.119889
0.11821
0.116566
0.114957
0.113379
0.111831
0.110313
0.108822
0.107357
0.105917
0.104501
0.103107
0.101734
0.100382
0.0990495
0.0977365
0.0964423
0.0951666
0.093909
0.0926694
0.0914471
0.0902418
0.0890537
0.0878827
0.0867287
0.0855917
0.084472
0.0833698
0.0822848
0.0812171
0.0801663
0.0791324
0.0781152
0.0771142
0.0761281
0.0751559
0.0741957
0.0732454
0.0723016
0.0713602
0.0704158
0.0694618
0.0684898
0.0674892
0.0664476
0.065353
0.0641991
0.0629916
0.0617448
0.0604574
0.0590981
0.0576027
0.0558751
0.053792
0.05122
0.0480735
0.044456
0.0411205
0.0392699
0.0382384
0.0376986
0.0374716
0.0374901
0.0377591
0.0382484
0.0388073
0.0393893
0.040041
0.0408362
0.0418152
0.0429502
0.0441825
0.0454318
0.0466129
0.0476437
0.0484326
0.0488308
0.0484346
0.0439733
0.562003
0.561233
0.558623
0.551907
0.539743
0.523067
0.503894
0.483917
0.464164
0.445159
0.427141
0.410194
0.394326
0.379505
0.365683
0.352801
0.340801
0.329621
0.319203
0.309489
0.300424
0.291955
0.284032
0.276609
0.269642
0.263091
0.256917
0.251084
0.245559
0.240309
0.235309
0.230537
0.225972
0.221596
0.217395
0.213353
0.209457
0.205695
0.202056
0.198529
0.195106
0.191777
0.188534
0.185371
0.182282
0.17926
0.176301
0.173401
0.170556
0.167764
0.165023
0.162332
0.15969
0.157098
0.154555
0.152062
0.14962
0.147229
0.14489
0.142603
0.140369
0.138188
0.13606
0.133984
0.131961
0.129987
0.128063
0.126186
0.124354
0.122566
0.12082
0.119112
0.117442
0.115808
0.114207
0.112638
0.111099
0.109589
0.108106
0.106649
0.105216
0.103806
0.102419
0.101052
0.0997046
0.0983766
0.0970671
0.0957755
0.0945013
0.0932443
0.0920043
0.0907801
0.0895716
0.0883787
0.0872011
0.0860387
0.0848913
0.0837589
0.0826413
0.081538
0.0804485
0.0793722
0.0783085
0.0772564
0.0762143
0.0751802
0.0741515
0.073125
0.0720962
0.0710589
0.0700053
0.0689247
0.0678028
0.0666195
0.0653467
0.0639489
0.0623908
0.0606604
0.0587997
0.056902
0.0550043
0.0530636
0.0509755
0.0485913
0.0457274
0.0421839
0.0378061
0.0326211
0.0281036
0.0266532
0.0258914
0.0254797
0.0252892
0.0254234
0.0259565
0.0269375
0.0279494
0.0289045
0.0299342
0.031216
0.0328602
0.0348147
0.0369885
0.0392537
0.0414687
0.0435056
0.0452452
0.0465265
0.0469421
0.0431804
0.558647
0.555946
0.550146
0.54005
0.525818
0.508748
0.490283
0.471485
0.453
0.435184
0.418212
0.402163
0.387057
0.372882
0.359607
0.347192
0.33559
0.324755
0.314636
0.305185
0.296352
0.288091
0.280356
0.273105
0.266296
0.25989
0.253851
0.248143
0.242733
0.237593
0.232696
0.228022
0.223553
0.21927
0.215158
0.211202
0.20739
0.20371
0.200151
0.196702
0.193354
0.190099
0.186927
0.183831
0.180805
0.177843
0.17494
0.172091
0.169293
0.166544
0.163841
0.161184
0.158573
0.156007
0.153488
0.151015
0.14859
0.146214
0.143888
0.141613
0.13939
0.137219
0.135101
0.133035
0.131021
0.129058
0.127144
0.125278
0.123457
0.121681
0.119946
0.11825
0.116591
0.114968
0.113378
0.111819
0.110291
0.108791
0.107318
0.105871
0.104447
0.103046
0.101667
0.100307
0.0989668
0.0976446
0.0963398
0.0950518
0.09378
0.0925241
0.091284
0.0900582
0.0888466
0.0876487
0.0864642
0.0852928
0.0841342
0.0829881
0.0818537
0.0807304
0.0796171
0.0785127
0.077416
0.0763251
0.0752372
0.0741491
0.0730568
0.0719547
0.0708355
0.069689
0.0685015
0.0672536
0.0659166
0.0644473
0.0627815
0.0608351
0.0585267
0.0558474
0.0529598
0.0502134
0.047688
0.0452789
0.042808
0.0400674
0.0368277
0.0328471
0.0279122
0.0218348
0.0174855
0.0172435
0.0167396
0.0164719
0.016277
0.0163333
0.0168237
0.0181634
0.0193816
0.0203224
0.0212999
0.0226489
0.0246286
0.027134
0.0300489
0.0332245
0.0364297
0.0394552
0.0421335
0.0442822
0.0454845
0.0423661
0.549024
0.544106
0.535774
0.523927
0.509262
0.492826
0.475558
0.458136
0.440995
0.424397
0.408493
0.393363
0.379041
0.365535
0.352832
0.340907
0.329729
0.319261
0.309463
0.300295
0.291715
0.283681
0.276153
0.269092
0.262459
0.256216
0.250329
0.244763
0.239486
0.234471
0.229695
0.225138
0.22078
0.216605
0.212597
0.208744
0.205031
0.201448
0.197984
0.194628
0.191371
0.188203
0.185115
0.1821
0.17915
0.17626
0.173423
0.170635
0.167892
0.165193
0.162535
0.159918
0.157341
0.154806
0.152311
0.149861
0.147454
0.145095
0.142783
0.14052
0.138308
0.136147
0.134039
0.131983
0.12998
0.128028
0.126126
0.124273
0.122465
0.120702
0.11898
0.117298
0.115653
0.114043
0.112465
0.11092
0.109404
0.107917
0.106456
0.10502
0.103608
0.102218
0.100848
0.0994982
0.0981661
0.0968511
0.0955523
0.094269
0.0930004
0.0917461
0.0905057
0.089279
0.0880646
0.086862
0.0856706
0.08449
0.0833198
0.082159
0.0810069
0.079862
0.0787231
0.0775885
0.076456
0.0753225
0.0741845
0.0730371
0.0718742
0.0706877
0.069466
0.0681936
0.0668481
0.0653957
0.0637834
0.0619275
0.0597011
0.0569368
0.0534841
0.0493682
0.0450301
0.0414831
0.0386299
0.03615
0.033746
0.0311609
0.028155
0.0244932
0.0199539
0.014088
0.0125442
0.00763567
0.00368212
0.00137469
0.0013879
0.00325846
0.0066356
0.0155218
0.0161016
0.0163081
0.0165803
0.0172564
0.0188687
0.0212586
0.024296
0.0280067
0.0319708
0.0358207
0.0393092
0.0422209
0.0441213
0.0415411
0.532999
0.526812
0.517512
0.505493
0.491469
0.476199
0.460322
0.44431
0.428488
0.413074
0.398209
0.383978
0.370432
0.357593
0.345464
0.334036
0.32329
0.313199
0.303733
0.29486
0.286544
0.27875
0.271441
0.264583
0.258139
0.252074
0.246353
0.240943
0.235815
0.230943
0.226304
0.221878
0.217647
0.213595
0.209706
0.205969
0.202371
0.198901
0.195548
0.1923
0.189149
0.186083
0.183094
0.180173
0.177312
0.174505
0.171745
0.169029
0.166351
0.16371
0.161104
0.158533
0.155995
0.153493
0.151027
0.148599
0.146213
0.143869
0.141571
0.139321
0.137119
0.134969
0.132871
0.130826
0.128834
0.126894
0.125005
0.123166
0.121373
0.119625
0.117919
0.116253
0.114623
0.113028
0.111466
0.109935
0.108434
0.106962
0.105515
0.104093
0.102695
0.101317
0.0999601
0.0986211
0.0972992
0.0959929
0.0947015
0.093424
0.0921596
0.0909078
0.0896682
0.0884412
0.0872245
0.0860174
0.0848192
0.0836293
0.0824469
0.0812709
0.0800999
0.0789323
0.0777663
0.0765994
0.0754285
0.0742495
0.0730574
0.0718457
0.0706058
0.0693259
0.0679895
0.0665733
0.0650419
0.0633399
0.0613772
0.0590083
0.0560143
0.0521191
0.0471058
0.0410925
0.0349537
0.0311779
0.0286218
0.0266002
0.0247281
0.0227549
0.0204836
0.0177341
0.0143154
0.00945866
0.00319637
1.75319e-06
2.00304e-08
1.09859e-10
7.93727e-06
0.000387966
0.00057165
0.00135886
0.00207292
0.00264149
0.00462744
0.00803542
0.0168615
0.0183496
0.0205346
0.0242727
0.0286159
0.0329594
0.0369899
0.0404618
0.0429074
0.0407133
0.513329
0.506875
0.497724
0.486381
0.473451
0.459502
0.445009
0.430332
0.415743
0.401434
0.387542
0.374164
0.361359
0.349164
0.337595
0.326655
0.316335
0.306619
0.297485
0.288909
0.280861
0.273312
0.26623
0.259583
0.253337
0.247459
0.241915
0.236675
0.231711
0.226996
0.22251
0.218231
0.214141
0.210226
0.206472
0.202866
0.199397
0.196055
0.192828
0.189705
0.186675
0.183728
0.180853
0.17804
0.175283
0.172573
0.169903
0.167269
0.164667
0.162094
0.159547
0.157027
0.154533
0.152068
0.149632
0.14723
0.144864
0.142537
0.140252
0.138012
0.135821
0.13368
0.131592
0.129557
0.127576
0.125649
0.123775
0.121951
0.120175
0.118444
0.116756
0.115107
0.113495
0.111918
0.110373
0.10886
0.107376
0.10592
0.10449
0.103084
0.101702
0.10034
0.0989966
0.097671
0.096361
0.0950654
0.0937829
0.0925125
0.0912535
0.0900053
0.0887674
0.087541
0.0863226
0.0851113
0.0839065
0.0827073
0.0815125
0.0803208
0.0791303
0.0779391
0.0767448
0.0755439
0.0743325
0.0731053
0.0718557
0.0705751
0.0692516
0.0678691
0.0664046
0.064824
0.063074
0.0610685
0.0586659
0.0556403
0.0516675
0.0463812
0.0395754
0.0315555
0.0235612
0.0207072
0.0190551
0.0178146
0.0166743
0.0154701
0.0140832
0.0123871
0.0101864
0.00631406
0.00105579
4.79199e-05
5.47617e-07
4.19008e-09
1.67561e-08
2.33633e-06
4.57261e-06
1.49174e-05
2.54246e-05
3.19741e-05
0.000550884
0.000915569
0.0068446
0.0123725
0.0197343
0.0230154
0.0269138
0.0311373
0.0353066
0.0390713
0.0418736
0.039884
0.492672
0.486483
0.477961
0.467574
0.455816
0.443135
0.429907
0.416435
0.402952
0.389641
0.376639
0.364044
0.351929
0.340338
0.329299
0.318824
0.308914
0.299561
0.290751
0.282465
0.274681
0.267374
0.260517
0.254081
0.248037
0.242352
0.236995
0.231938
0.227152
0.222611
0.218293
0.214175
0.210242
0.206478
0.202871
0.199411
0.196086
0.192887
0.189803
0.186821
0.18393
0.181118
0.178374
0.175687
0.173049
0.170451
0.167887
0.165349
0.162834
0.160339
0.15786
0.155398
0.152954
0.150529
0.148127
0.14575
0.143405
0.141094
0.138821
0.136591
0.134408
0.132275
0.130194
0.128169
0.126199
0.124285
0.122426
0.120619
0.118861
0.11715
0.115482
0.113853
0.112261
0.110704
0.109179
0.107685
0.10622
0.104783
0.103372
0.101986
0.100621
0.0992771
0.0979511
0.0966412
0.0953455
0.0940625
0.0927908
0.0915293
0.0902771
0.0890338
0.0877985
0.0865713
0.0853519
0.0841372
0.0829263
0.0817182
0.0805114
0.079304
0.0780939
0.0768787
0.075655
0.0744188
0.0731649
0.0718868
0.070576
0.0692212
0.0678069
0.0663116
0.0647034
0.0629341
0.0609264
0.0585543
0.0556127
0.0517893
0.0466803
0.0399305
0.0315448
0.022189
0.0131539
0.0120324
0.0112615
0.0106951
0.0101609
0.00958365
0.00891878
0.00810344
0.0069618
0.00380612
0.000326417
9.82999e-06
1.23762e-07
9.88783e-10
7.4682e-11
1.38176e-08
3.28201e-08
1.34485e-07
2.28544e-07
2.54743e-07
7.14701e-06
1.21277e-05
0.000161037
0.00866895
0.0194561
0.0224735
0.0260356
0.03003
0.0341482
0.0380178
0.041013
0.0390457
0.472536
0.466799
0.459011
0.449574
0.438891
0.427328
0.415201
0.402771
0.390253
0.37782
0.365605
0.353714
0.342223
0.331184
0.320634
0.310591
0.301064
0.292051
0.283546
0.275535
0.268001
0.260925
0.254284
0.248054
0.242207
0.236717
0.231555
0.226693
0.222102
0.217752
0.213618
0.209678
0.205915
0.202315
0.198869
0.195568
0.192402
0.189363
0.186438
0.183616
0.180883
0.178226
0.175633
0.173092
0.170592
0.168125
0.165682
0.163257
0.160844
0.158438
0.156038
0.153643
0.151254
0.148874
0.146507
0.144158
0.141833
0.139536
0.137274
0.135051
0.132873
0.130745
0.12867
0.126651
0.12469
0.122788
0.120944
0.119156
0.117419
0.115731
0.114085
0.11248
0.11091
0.109375
0.107872
0.106399
0.104955
0.10354
0.102151
0.100786
0.0994432
0.0981201
0.0968141
0.095523
0.0942444
0.0929766
0.0917179
0.0904672
0.0892236
0.0879864
0.0867549
0.0855285
0.0843093
0.083092
0.0818754
0.0806583
0.0794389
0.0782151
0.0769844
0.0757438
0.0744892
0.0732156
0.0719168
0.0705845
0.0692081
0.0677732
0.0662597
0.0646391
0.0628683
0.0608808
0.0585692
0.0557592
0.0521777
0.0474423
0.0411447
0.0331258
0.0238922
0.0147338
0.00715786
0.0029367
0.000843087
0.000133079
1.45687e-05
4.16852e-05
0.000217917
0.000427642
0.00164436
0.000484472
2.27926e-05
2.17314e-07
2.20265e-09
1.84193e-11
4.80942e-13
8.69016e-11
2.36876e-10
1.13251e-09
1.81987e-09
1.89062e-09
5.8211e-08
1.02231e-07
2.31538e-06
0.0165431
0.0194183
0.0221237
0.0256167
0.0293601
0.033355
0.0372244
0.0402943
0.0381846
0.453587
0.448315
0.441207
0.4326
0.422828
0.412202
0.400994
0.389439
0.377736
0.36605
0.354516
0.343238
0.332297
0.32175
0.311638
0.301985
0.292805
0.284102
0.275874
0.268112
0.260804
0.253935
0.24749
0.241447
0.235789
0.230492
0.225533
0.22088
0.2165
0.212361
0.208431
0.204686
0.201108
0.197687
0.194414
0.191284
0.188292
0.185429
0.182684
0.180043
0.177491
0.175012
0.172594
0.170221
0.167883
0.165569
0.16327
0.160976
0.158683
0.156383
0.154074
0.151755
0.149429
0.147099
0.14477
0.14245
0.140144
0.137859
0.135604
0.133384
0.131207
0.129079
0.127004
0.124988
0.123028
0.121129
0.119296
0.117528
0.115815
0.114152
0.112533
0.110954
0.109409
0.107898
0.106418
0.104968
0.103548
0.102156
0.100791
0.0994507
0.0981329
0.0968346
0.0955528
0.0942845
0.093027
0.091778
0.0905356
0.0892985
0.0880658
0.0868367
0.0856107
0.0843872
0.0831692
0.0819503
0.0807289
0.0795035
0.0782721
0.0770322
0.0757809
0.0745145
0.0732283
0.071916
0.0705699
0.06918
0.0677329
0.0662105
0.064587
0.0628252
0.0608681
0.0586266
0.0559573
0.0526336
0.0483206
0.0426054
0.035184
0.0262721
0.0169938
0.00906754
0.00381166
0.000629902
2.54352e-05
1.53705e-07
4.19324e-10
6.49313e-08
4.05337e-06
4.80668e-06
3.67243e-06
6.72087e-06
3.60399e-07
5.21361e-09
5.11739e-11
4.069e-13
4.63891e-15
5.82862e-13
1.84657e-12
9.74749e-12
1.33846e-11
1.16771e-11
3.15606e-10
4.41845e-10
0.000408161
0.0166102
0.0192731
0.0218338
0.0252049
0.0288949
0.0327809
0.0366089
0.0396777
0.037283
0.436052
0.431194
0.424655
0.416724
0.407685
0.397809
0.387338
0.376489
0.36545
0.354381
0.343414
0.332655
0.322184
0.312062
0.302331
0.293018
0.284142
0.275708
0.267717
0.260165
0.253044
0.246346
0.24006
0.234177
0.228688
0.223577
0.218823
0.214394
0.21025
0.206347
0.202647
0.199119
0.195744
0.192514
0.189426
0.18648
0.183676
0.181008
0.178464
0.17603
0.173687
0.171417
0.169202
0.167027
0.164879
0.162746
0.160617
0.158482
0.15633
0.154156
0.151955
0.149726
0.147472
0.145197
0.14291
0.140618
0.13833
0.136055
0.133803
0.13158
0.129397
0.127261
0.125179
0.123142
0.121164
0.119256
0.117425
0.115671
0.113987
0.112356
0.11077
0.109222
0.107708
0.106225
0.104772
0.103349
0.101955
0.100591
0.0992553
0.0979454
0.0966586
0.0953916
0.0941405
0.0929014
0.0916706
0.0904454
0.0892234
0.0880031
0.0867839
0.0855651
0.0843463
0.083127
0.0819066
0.0806883
0.079464
0.0782319
0.0769896
0.0757344
0.0744626
0.0731697
0.07185
0.0704961
0.0690986
0.0676452
0.0661194
0.0644985
0.0627499
0.0608257
0.0586522
0.0561139
0.0530284
0.049118
0.0440054
0.0373098
0.0289558
0.0196588
0.0110848
0.0049785
0.00211398
0.000129672
3.45163e-07
7.84275e-10
2.04431e-12
5.17568e-11
1.05868e-08
2.04173e-08
2.19866e-08
5.4585e-08
4.43809e-09
6.10748e-11
6.30076e-13
5.3946e-15
0
3.97213e-15
1.69681e-14
9.57725e-14
9.21655e-14
1.15789e-13
4.49454e-11
4.02186e-06
0.0020463
0.0163621
0.0190331
0.0215612
0.0248443
0.0284608
0.0323285
0.0361074
0.0391267
0.0363224
0.419966
0.415447
0.409356
0.401944
0.393462
0.384154
0.374244
0.363936
0.353412
0.342828
0.332314
0.321974
0.31189
0.302121
0.292708
0.28368
0.275054
0.266837
0.259031
0.251635
0.244644
0.238058
0.231877
0.226107
0.22075
0.215804
0.211253
0.207066
0.20319
0.199565
0.196133
0.192853
0.189702
0.186676
0.183782
0.18103
0.178429
0.175976
0.173662
0.171469
0.169372
0.167349
0.165377
0.163437
0.161517
0.159602
0.157679
0.155735
0.153757
0.151735
0.149663
0.147541
0.145371
0.14316
0.140918
0.138656
0.136384
0.134115
0.131858
0.129625
0.127425
0.12527
0.123146
0.121071
0.119064
0.117138
0.115303
0.113562
0.111912
0.110321
0.108775
0.107265
0.105786
0.104333
0.102909
0.101514
0.100149
0.0988155
0.0975123
0.0962376
0.0949882
0.0937596
0.0925468
0.0913443
0.0901473
0.0889517
0.0877549
0.0865553
0.0853525
0.0841462
0.0829364
0.0817228
0.0805047
0.0792881
0.078061
0.0768216
0.0755671
0.0742942
0.0729988
0.0716756
0.0703174
0.0689156
0.0674586
0.0659314
0.0643139
0.0625779
0.0606831
0.0585691
0.0561433
0.0532615
0.0497021
0.0451455
0.0392062
0.0316209
0.0226699
0.0136105
0.00637795
0.0021951
0.00124199
2.74913e-05
1.3911e-07
5.73748e-10
1.7902e-12
7.74962e-14
2.6975e-11
7.57839e-11
1.0762e-10
3.28531e-10
3.12132e-11
4.77414e-13
5.19139e-15
0
0
0
3.17516e-18
3.4768e-15
4.63587e-13
1.45478e-10
5.74836e-08
2.45296e-05
0.00295184
0.0160862
0.0187763
0.0213077
0.0245365
0.0280964
0.0319113
0.0356507
0.0385767
0.0353017
0.405283
0.401027
0.395263
0.38822
0.380128
0.371213
0.361691
0.351761
0.341603
0.331372
0.321196
0.311178
0.301396
0.291904
0.282743
0.273936
0.265497
0.257432
0.249741
0.242422
0.235479
0.22892
0.222761
0.217022
0.211578
0.206587
0.20223
0.198315
0.194772
0.191505
0.188419
0.185449
0.182567
0.179772
0.177088
0.174547
0.172173
0.169974
0.167941
0.166051
0.164271
0.162566
0.160906
0.159268
0.157638
0.156002
0.154345
0.152647
0.150893
0.149066
0.147159
0.14517
0.143103
0.140968
0.138778
0.136547
0.134289
0.132019
0.129751
0.127496
0.125267
0.123065
0.120876
0.118735
0.116661
0.114678
0.112813
0.111081
0.109474
0.107936
0.106444
0.104984
0.103546
0.102128
0.100734
0.0993682
0.0980342
0.0967342
0.0954688
0.0942363
0.0930335
0.0918546
0.0906924
0.0895389
0.0883868
0.0872304
0.0860664
0.0848935
0.0837116
0.0825211
0.0813226
0.0801164
0.0789022
0.077681
0.0764523
0.0752059
0.0739387
0.0726465
0.0713239
0.0699644
0.0685595
0.0670988
0.0655686
0.0639511
0.0622224
0.0603489
0.0582814
0.0559461
0.0532301
0.0499604
0.0458795
0.0406428
0.0339098
0.0256428
0.0165983
0.0085143
0.00315518
0.000733849
6.25156e-05
1.26932e-06
5.85254e-09
2.30017e-11
7.64421e-14
3.17516e-18
6.37224e-14
2.38737e-13
4.1695e-13
1.46347e-12
1.50182e-13
2.47028e-15
0
0
0
0
0
1.96543e-15
1.12624e-12
3.79544e-10
1.15773e-07
3.11515e-05
0.00470831
0.0158996
0.0185612
0.0210877
0.024267
0.0277753
0.0315329
0.0352127
0.0379819
0.034216
0.39193
0.38786
0.38231
0.375493
0.367627
0.358934
0.349628
0.339912
0.329971
0.319961
0.310009
0.300214
0.290647
0.281357
0.272375
0.263717
0.25539
0.247393
0.239722
0.232376
0.225365
0.218707
0.2122
0.205609
0.199267
0.193397
0.18838
0.184891
0.181964
0.179418
0.177042
0.174703
0.17234
0.16996
0.167621
0.165409
0.163395
0.161608
0.160042
0.158665
0.157423
0.156249
0.155097
0.153939
0.152761
0.151552
0.150296
0.148969
0.147545
0.146004
0.144331
0.142528
0.140602
0.138567
0.136444
0.134251
0.132009
0.129734
0.127445
0.125155
0.122878
0.120576
0.118283
0.116015
0.113796
0.111667
0.109695
0.107943
0.106397
0.10494
0.103531
0.102144
0.100765
0.0993915
0.0980328
0.0966997
0.0954011
0.0941421
0.0929248
0.0917489
0.0906108
0.0895036
0.0884162
0.0873356
0.08625
0.0851511
0.0840344
0.0828989
0.0817454
0.0805761
0.0793927
0.0781965
0.0769877
0.0757652
0.0745383
0.0732848
0.0720005
0.0706808
0.0693199
0.0679103
0.0664428
0.0649052
0.0632821
0.0615531
0.0596906
0.057655
0.0553883
0.0528025
0.0497643
0.046073
0.041442
0.0355294
0.0281147
0.0195161
0.0110413
0.00465114
0.00133361
0.000220762
9.60434e-06
2.15357e-07
1.0293e-09
4.09954e-12
1.39548e-14
0
0
2.12736e-16
9.87476e-16
4.86118e-15
1.93685e-16
0
0
0
0
0
0
0
5.81173e-12
1.23632e-09
2.80445e-07
5.20952e-05
0.0131141
0.0159381
0.0184118
0.0208959
0.0240183
0.0274753
0.0311726
0.0347762
0.0373339
0.0330496
0.379824
0.375869
0.370424
0.363692
0.35589
0.347241
0.337973
0.328302
0.318423
0.3085
0.298659
0.28899
0.279553
0.270386
0.261505
0.252914
0.244606
0.236569
0.228794
0.221279
0.214031
0.206677
0.198813
0.190714
0.18235
0.174291
0.167112
0.163497
0.161555
0.160346
0.159309
0.158143
0.156692
0.154955
0.153068
0.151254
0.149725
0.14856
0.147764
0.147289
0.147028
0.146834
0.146603
0.146295
0.145904
0.145431
0.144863
0.144168
0.143304
0.142236
0.140947
0.13944
0.137733
0.135852
0.133828
0.131693
0.129473
0.127194
0.124875
0.122535
0.120183
0.117752
0.115279
0.112767
0.110232
0.107734
0.105439
0.103594
0.102141
0.100825
0.0995641
0.098304
0.097018
0.0957051
0.0943856
0.093087
0.0918282
0.0906194
0.0894661
0.0883706
0.0873312
0.0863393
0.0853773
0.0844207
0.0834485
0.0824462
0.0814071
0.0803308
0.0792212
0.0780831
0.0769213
0.075739
0.0745373
0.0733154
0.0720768
0.0708147
0.0695096
0.0681564
0.0667487
0.0652783
0.0637349
0.0621053
0.0603726
0.0585144
0.0564991
0.0542818
0.0517953
0.0489387
0.045559
0.0414301
0.0362473
0.0297147
0.0218427
0.0134548
0.00635555
0.00212975
0.000479443
6.07516e-05
1.34192e-06
1.42576e-08
7.40981e-11
2.96078e-13
7.42988e-16
0
0
0
0
0
0
0
0
0
0
0
0
0
7.89425e-12
2.2697e-09
5.53362e-07
0.000118027
0.0130682
0.0157933
0.0182049
0.0206799
0.0237609
0.0271738
0.0308122
0.0343264
0.0366247
0.031784
0.368855
0.364927
0.35947
0.35269
0.344815
0.33609
0.326748
0.316808
0.306811
0.296838
0.286996
0.27736
0.267972
0.258848
0.249983
0.24136
0.232955
0.224744
0.216704
0.208815
0.200817
0.191523
0.181175
0.169889
0.157563
0.146303
0.135081
0.131276
0.130733
0.131929
0.133245
0.134079
0.134051
0.133088
0.131309
0.128542
0.12746
0.127104
0.127487
0.128555
0.130116
0.131757
0.133217
0.134423
0.13541
0.136225
0.136875
0.137313
0.137455
0.137232
0.136616
0.135619
0.13428
0.132653
0.130793
0.128752
0.126575
0.124297
0.121944
0.119535
0.117022
0.114401
0.111648
0.108726
0.105596
0.1023
0.099201
0.0971815
0.0958861
0.0948562
0.0938864
0.0928696
0.0917453
0.0905104
0.0892162
0.0879373
0.0867119
0.0855564
0.0844811
0.0834955
0.0826052
0.0818044
0.0810642
0.0803305
0.0795616
0.0787294
0.0778225
0.0768432
0.0758016
0.0747095
0.0735778
0.0724138
0.071221
0.069999
0.0687449
0.0674822
0.0661571
0.0647656
0.0633032
0.0617634
0.0601362
0.0584075
0.0565581
0.0545618
0.0523823
0.0499688
0.0472484
0.0441101
0.0403844
0.0358229
0.0301197
0.0231051
0.0151982
0.00785483
0.00294495
0.000783643
0.000144477
1.54371e-05
1.75259e-07
4.89498e-10
1.6765e-12
5.98836e-15
0
0
0
0
0
0
0
0
0
0
0
0
0
2.32136e-14
6.31015e-12
2.82409e-09
1.42017e-06
0.000603847
0.0127007
0.0154985
0.0179232
0.0204158
0.0234734
0.026852
0.0304358
0.0338509
0.0358469
0.0303954
0.358921
0.354912
0.349296
0.342286
0.334136
0.325127
0.31553
0.305444
0.295325
0.285191
0.274807
0.265114
0.255696
0.246531
0.237585
0.228816
0.220179
0.211623
0.20309
0.194511
0.18396
0.171257
0.156266
0.141342
0.1253
0.11438
0.102091
0.0997423
0.0999484
0.103585
0.107019
0.1096
0.11066
0.10983
0.105695
0.0998726
0.0975266
0.0974642
0.0987465
0.101486
0.105584
0.109909
0.113757
0.117023
0.119885
0.122531
0.125031
0.127303
0.129142
0.130363
0.13089
0.130744
0.13001
0.128791
0.127191
0.125302
0.123196
0.120929
0.118537
0.116039
0.113363
0.110486
0.107342
0.103824
0.0997543
0.0951018
0.0905064
0.0884925
0.0874662
0.0869923
0.0865285
0.0859139
0.0850179
0.0838211
0.0822042
0.0807097
0.0794795
0.0783573
0.0773539
0.0764928
0.0758027
0.0753007
0.0749492
0.074608
0.074195
0.0736518
0.0729587
0.0721267
0.0711811
0.0701492
0.0690542
0.067912
0.0667307
0.0655106
0.0642465
0.0629366
0.0616007
0.0601821
0.0586766
0.0570775
0.0553742
0.0535506
0.0515831
0.049439
0.0470739
0.0444337
0.0414525
0.0380194
0.0339507
0.0289803
0.022842
0.0156699
0.00857164
0.00344145
0.0010044
0.000218096
3.45795e-05
3.69174e-06
3.22643e-08
1.12546e-10
3.89186e-13
1.09861e-15
0
0
0
0
0
0
0
0
0
0
0
0
0
1.64944e-12
1.37614e-10
6.76359e-08
1.62904e-05
0.00132615
0.0122888
0.0151415
0.0175863
0.0201
0.023143
0.0264952
0.0300304
0.0333399
0.0349939
0.0288498
0.349946
0.345742
0.339804
0.332355
0.32369
0.31415
0.304066
0.29365
0.283276
0.273018
0.26261
0.252418
0.242455
0.233139
0.224007
0.214965
0.205924
0.196782
0.187406
0.176485
0.162161
0.14344
0.123399
0.109161
0.0941442
0.0896907
0.0862681
0.0677795
0.062256
0.0924592
0.0945315
0.0962969
0.0968028
0.0950173
0.0883557
0.0799163
0.0772094
0.0758974
0.0762421
0.0783869
0.0833938
0.0891654
0.0941364
0.0982559
0.102014
0.105854
0.109993
0.114325
0.118364
0.121586
0.123731
0.124789
0.124896
0.124235
0.122983
0.12129
0.119274
0.117019
0.114577
0.111968
0.10911
0.105957
0.102392
0.0982138
0.0930043
0.086829
0.0808446
0.0793046
0.0785911
0.078944
0.0790524
0.0788857
0.0781765
0.0768213
0.0735123
0.0714414
0.0699801
0.06883
0.0678344
0.0670409
0.0665326
0.0664186
0.0667214
0.0670232
0.0671897
0.0670975
0.0667135
0.0660749
0.0652425
0.0642742
0.0632151
0.0620962
0.0609331
0.0597246
0.058457
0.0571189
0.0557462
0.0542859
0.0527219
0.0510543
0.0492727
0.0473541
0.045261
0.0429387
0.0403222
0.0373633
0.0340479
0.0302836
0.0258652
0.0205329
0.0142255
0.00780427
0.00315308
0.000954885
0.000225704
4.13842e-05
5.68725e-06
8.42509e-07
7.47901e-09
2.92213e-11
1.0961e-13
6.35033e-17
0
0
0
0
0
0
0
0
0
0
0
0
4.16872e-12
2.74588e-10
2.61341e-08
1.84091e-06
7.55199e-05
0.00244417
0.0119427
0.0147761
0.0172096
0.0197294
0.0227576
0.0260889
0.0295834
0.0327868
0.0340623
0.0270961
0.341849
0.337327
0.330874
0.322724
0.313232
0.302847
0.292017
0.281064
0.270297
0.259765
0.249279
0.239115
0.228805
0.218303
0.208849
0.19937
0.189682
0.179579
0.168774
0.152809
0.133045
0.108606
0.0891903
0.0822132
0.0774171
0.0180304
0.000790729
0.000422746
0.00128909
0.00342006
0.0561451
0.0867606
0.0874121
0.0845364
0.0740836
0.0695203
0.0404375
0.00657287
0.00848419
0.0469048
0.0764063
0.0801255
0.0830528
0.0853809
0.087775
0.09085
0.0950814
0.100603
0.106661
0.111989
0.115904
0.118284
0.119306
0.119234
0.11833
0.116813
0.114857
0.112584
0.110069
0.107333
0.104317
0.100953
0.097084
0.0923964
0.0861312
0.0792578
0.0744466
0.0626066
0.0522373
0.0713625
0.071982
0.0723256
0.0717438
0.0692648
0.0622126
0.0588542
0.0574912
0.0562548
0.0548965
0.054033
0.0535567
0.0538576
0.0554724
0.0569554
0.0581574
0.0588269
0.0589062
0.0585211
0.0578205
0.0569212
0.0559056
0.0548281
0.0537165
0.052563
0.0513238
0.0499742
0.0485115
0.0470205
0.0454174
0.0437046
0.0418664
0.0398607
0.0376114
0.0350082
0.031942
0.0284114
0.0245884
0.0204044
0.0156051
0.0101044
0.00501554
0.00189231
0.00057793
0.000148722
3.17619e-05
5.24904e-06
5.56843e-07
9.51171e-09
6.66959e-11
3.00221e-13
1.05415e-15
0
0
0
0
0
0
0
0
0
0
0
0
0
5.31736e-12
8.7368e-10
1.23406e-07
7.51166e-06
0.000304477
0.00886647
0.0117907
0.0144092
0.0167796
0.0192856
0.0222971
0.0256145
0.0290816
0.0321894
0.0330583
0.0250567
0.33455
0.329573
0.322365
0.313155
0.302392
0.290731
0.278834
0.267125
0.255831
0.244941
0.234315
0.224034
0.21371
0.2029
0.191597
0.181403
0.170662
0.158919
0.143688
0.118726
0.0974986
0.0753168
0.0693123
0.0226038
0.000949473
0.000123061
7.20414e-06
3.03813e-06
8.27055e-06
2.46613e-05
0.000516828
0.040186
0.0749446
0.0716349
0.0599283
0.00624448
6.65402e-05
1.96154e-05
5.21551e-05
0.000639922
0.0489021
0.074361
0.0755808
0.0760296
0.0766741
0.0781896
0.0814091
0.0873684
0.0956159
0.103064
0.10858
0.112086
0.113848
0.114217
0.113527
0.112066
0.110064
0.107693
0.105065
0.102202
0.0991067
0.0957009
0.0918042
0.0869399
0.0798255
0.0732539
0.0253607
0.000323908
0.000269301
0.00140922
0.0319371
0.0651347
0.0652558
0.0619048
0.0539667
0.016445
0.000399879
0.00208217
9.49516e-05
6.73602e-05
0.000813788
0.0203828
0.0499247
0.0508667
0.0519146
0.0525117
0.0524111
0.0518217
0.0509387
0.0498923
0.0487699
0.0476353
0.0465276
0.0454284
0.0442071
0.0428201
0.0412776
0.0396248
0.0379029
0.0360686
0.0340754
0.0318232
0.0291503
0.0258486
0.0218037
0.0172408
0.0127055
0.0081406
0.00430153
0.00187094
0.000691867
0.000225802
6.63216e-05