/*--------------------------------*- C++ -*----------------------------------*\
| =========                 |                                                 |
| \\      /  F ield         | OpenFOAM: The Open Source CFD Toolbox           |
|  \\    /   O peration     | Version:  2.1.0                                 |
|   \\  /    A nd           | Web:      www.OpenFOAM.org                      |
|    \\/     M anipulation  |                                                 |
\*---------------------------------------------------------------------------*/
FoamFile
{
    version     2.0;
    format      ascii;
    class       surfaceScalarField;
    location    "36135";
    object      phi_o;
}
// * * * * * * * * * * * * * * * * * * * * * * * * * * * * * * * * * * * * * //

dimensions      [1 -2 -2 0 0 0 0];

internalField   nonuniform List<scalar> 
29750
(
18.5907
18.6195
11.223
7.36774
7.75407
3.46931
5.86045
1.90062
4.72387
1.17405
4.01274
0.799217
3.55247
0.588251
3.23855
0.458096
3.01236
0.370265
2.84263
0.306584
2.71226
0.257947
2.61125
0.219389
2.53324
0.187973
2.4739
0.161845
2.43008
0.139778
2.39938
0.120932
2.37988
0.104714
2.36999
0.0906972
2.36831
0.0785672
2.37365
0.068087
2.3849
0.0590763
2.40107
0.051392
2.42122
0.0449168
2.44451
0.0395482
2.47014
0.0351887
2.49738
0.0317427
2.52558
0.0291153
2.55417
0.0272131
2.58266
0.0259478
2.61062
0.0252395
2.63771
0.0250174
2.66361
0.0252178
2.68804
0.0257838
2.71076
0.0266663
2.73155
0.0278214
2.75023
0.0292092
2.76664
0.0307892
2.78068
0.0325172
2.79228
0.034343
2.80144
0.0362101
2.80821
0.0380567
2.81269
0.0398181
2.81506
0.0414283
2.81556
0.0428231
2.81449
0.0439422
2.8122
0.0447309
2.80906
0.045144
2.80552
0.0451474
2.80201
0.0447206
2.79899
0.0438569
2.7969
0.0425638
2.79616
0.0408632
2.79716
0.0387913
2.80023
0.0363981
2.80563
0.0337451
2.81358
0.030902
2.8242
0.0279435
2.83753
0.0249478
2.85354
0.0219945
2.87213
0.019161
2.89311
0.0165184
2.91625
0.0141271
2.94126
0.0120347
2.9678
0.0102745
2.99554
0.00886475
3.02414
0.00780736
3.05327
0.00708779
3.08262
0.00667722
3.11194
0.00653625
3.14101
0.0066202
3.16966
0.00688325
3.19776
0.00728162
3.22523
0.00777465
3.25201
0.00832581
3.27808
0.00890395
3.30346
0.00948366
3.32816
0.010042
3.35225
0.0105532
3.37582
0.010986
3.39896
0.0113061
3.42185
0.0114788
3.44467
0.0114705
3.46766
0.0112484
3.49108
0.0107781
3.5152
0.0100248
3.54035
0.00895802
3.56688
0.00755542
3.59516
0.00580014
3.62556
0.00367455
3.65848
0.00115818
3.69435
-0.00177079
3.7336
-0.00513404
3.77672
-0.0089574
3.8242
-0.0132779
3.87662
-0.0181476
3.93458
-0.0236294
3.99879
-0.0297952
4.07004
-0.0367311
4.14922
-0.0445471
4.23735
-0.0533794
4.3356
-0.063385
4.44536
-0.0747399
4.56817
-0.0876425
4.70584
-0.102323
4.86041
-0.119042
5.03418
-0.138077
5.22978
-0.159703
5.45006
-0.184175
5.69809
-0.211698
5.97702
-0.242375
6.28991
-0.276111
6.63942
-0.312495
7.02735
-0.350661
7.45409
-0.389171
7.91789
-0.425957
8.4145
-0.45847
8.93717
-0.484225
9.47787
-0.501925
10.03
-0.513053
10.5928
-0.523253
11.1748
-0.54217
11.7962
-0.581115
12.4871
-0.650145
13.2837
-0.75511
14.2196
-0.893621
15.3116
-1.04859
16.5364
-1.17974
17.8029
-1.21983
18.9465
-1.09556
19.7982
-0.803834
20.3344
-0.48914
20.5928
-0.212293
20.6107
0.0274879
20.4044
0.25177
19.9787
0.471386
19.3654
0.659162
18.6524
0.759146
17.8716
0.82717
16.9888
0.929485
15.9426
1.09312
14.6911
1.29875
13.2422
1.49647
11.6372
1.65296
9.93817
1.7475
8.20623
1.78104
6.48608
1.77008
4.80168
1.73554
3.1593
1.69546
1.5542
1.66259
1.6445
7.33894
11.2806
7.3246
7.38215
6.18538
4.61014
5.13389
2.96824
4.34904
2.01597
3.80177
1.45327
3.42231
1.10579
3.15072
0.877068
2.94868
0.716293
2.79399
0.596866
2.6737
0.504295
2.57984
0.430185
2.50712
0.369376
2.45183
0.318533
2.41123
0.275412
2.38316
0.238459
2.36587
0.206571
2.35786
0.178947
2.35783
0.154999
2.36464
0.134283
2.37722
0.116462
2.39459
0.101264
2.41585
0.0884643
2.44015
0.0778611
2.46669
0.0692636
2.49475
0.062485
2.52368
0.0573387
2.55291
0.0536412
2.58195
0.0512169
2.6104
0.0499024
2.63791
0.04955
2.66418
0.0500283
2.68893
0.0512232
2.71192
0.0530392
2.73294
0.0553944
2.75181
0.0582144
2.76837
0.0614222
2.7825
0.0649312
2.79415
0.0686422
2.80329
0.0724419
2.80997
0.0762046
2.8143
0.0797972
2.81645
0.083085
2.81668
0.085936
2.81528
0.0882268
2.81261
0.0898474
2.80906
0.0907065
2.80509
0.0907349
2.80114
0.08989
2.79769
0.0881565
2.7952
0.0855485
2.79409
0.0821106
2.79477
0.0779175
2.79757
0.073071
2.80279
0.0676953
2.81062
0.0619321
2.8212
0.0559352
2.83457
0.049866
2.8507
0.0438868
2.86948
0.0381541
2.89072
0.032811
2.91416
0.0279806
2.9395
0.023762
2.96639
0.0202252
2.99449
0.0174072
3.02342
0.0153104
3.05286
0.0139026
3.08248
0.0131227
3.11202
0.0128884
3.14127
0.0131063
3.17006
0.0136806
3.19826
0.0145196
3.22578
0.015541
3.25259
0.0166743
3.27866
0.017861
3.30401
0.0190513
3.32867
0.020198
3.35269
0.0212488
3.37614
0.0221439
3.39914
0.0228184
3.42184
0.0232053
3.44445
0.0232345
3.46719
0.0228325
3.49032
0.0219255
3.51413
0.0204472
3.53895
0.0183422
3.56513
0.0155659
3.59303
0.0120806
3.62304
0.00784967
3.65555
0.00283735
3.69098
-0.00299254
3.72978
-0.0096806
3.7724
-0.0172817
3.81934
-0.025871
3.87114
-0.0355453
3.92842
-0.0464214
3.99185
-0.0586427
4.06222
-0.0723883
4.14038
-0.0878795
4.22734
-0.105379
4.32425
-0.125192
4.43245
-0.147667
4.55349
-0.17321
4.68912
-0.202292
4.84137
-0.235431
5.01256
-0.273187
5.20531
-0.31613
5.42254
-0.364816
5.66741
-0.419721
5.94328
-0.481124
6.25352
-0.548935
6.60125
-0.622463
6.98884
-0.700119
7.4173
-0.779083
7.88538
-0.855055
8.38875
-0.922365
8.91947
-0.974911
9.46674
-1.00851
10.0198
-1.02475
10.5738
-1.03507
11.1358
-1.06109
11.7272
-1.12831
12.3822
-1.25972
13.1452
-1.47089
14.0647
-1.76322
15.1805
-2.11054
16.4963
-2.43561
17.9272
-2.58307
19.2382
-2.33405
20.1129
-1.61076
20.6113
-0.926106
20.8326
-0.377676
20.8349
0.0775378
20.624
0.516225
20.1664
0.983434
19.4654
1.41541
18.7204
1.55956
17.9739
1.62916
17.1524
1.80653
16.1482
2.15291
14.8888
2.6138
13.3986
3.04203
11.7317
3.37478
9.97171
3.56179
8.19527
3.61117
6.45154
3.56721
4.76161
3.47901
3.12643
3.38517
1.53611
3.31102
3.27081
3.44048
7.84047
4.55259
6.27165
4.54348
4.62955
4.18162
3.37018
3.78634
2.49911
3.45429
1.91325
3.19359
1.513
2.98995
1.22907
2.82925
1.01902
2.70142
0.857589
2.5996
0.729552
2.51903
0.625371
2.45627
0.538858
2.40871
0.465858
2.37428
0.403501
2.35127
0.349759
2.33824
0.303172
2.33391
0.26267
2.33712
0.227462
2.34682
0.196948
2.36202
0.170668
2.38179
0.148251
2.40525
0.129383
2.43155
0.113781
2.45991
0.101173
2.48961
0.091286
2.51998
0.0838434
2.55048
0.0785681
2.58063
0.0751895
2.61005
0.0734536
2.63839
0.0731305
2.66537
0.0740179
2.69074
0.0759487
2.71427
0.0787891
2.73576
0.0824291
2.75501
0.0867671
2.77188
0.0916969
2.78622
0.097095
2.79795
0.102813
2.80705
0.108676
2.81356
0.114491
2.81758
0.120052
2.81931
0.12515
2.81897
0.12958
2.8169
0.133153
2.81347
0.135698
2.80909
0.137075
2.80425
0.137175
2.79941
0.135931
2.79509
0.133316
2.79176
0.129351
2.7899
0.124103
2.78992
0.117689
2.7922
0.110266
2.79703
0.102026
2.80463
0.0931899
2.81513
0.0839961
2.82859
0.074695
2.84497
0.0655374
2.86414
0.0567647
2.88589
0.0485987
2.90994
0.0412324
2.93596
0.0348211
2.96357
0.0294743
2.99239
0.025249
3.02201
0.022146
3.05208
0.0201114
3.08225
0.0190446
3.11224
0.0188117
3.14185
0.0192614
3.1709
0.0202402
3.19928
0.0216038
3.22692
0.0232261
3.25378
0.0250039
3.27986
0.0268549
3.30516
0.0287091
3.32972
0.0304982
3.35358
0.0321476
3.37681
0.0335714
3.39952
0.0346741
3.42187
0.0353518
3.44405
0.0354929
3.46629
0.0349812
3.48885
0.0337033
3.51203
0.031559
3.53618
0.0284662
3.56164
0.0243592
3.5888
0.0191812
3.61803
0.012882
3.64973
0.00541583
3.6843
-0.00326317
3.72218
-0.0132124
3.76381
-0.0245116
3.80966
-0.037268
3.86026
-0.0516175
3.91619
-0.0677298
3.97811
-0.085818
4.04673
-0.106148
4.12288
-0.129043
4.20753
-0.154887
4.30177
-0.184128
4.40691
-0.21729
4.52441
-0.254988
4.65598
-0.297927
4.80362
-0.346896
4.96962
-0.402755
5.15662
-0.466415
5.36763
-0.538801
5.60601
-0.620759
5.87547
-0.712903
6.17999
-0.815382
6.52359
-0.927527
6.90988
-1.04735
7.34133
-1.17087
7.81807
-1.29142
8.3362
-1.39922
8.88588
-1.48218
9.45049
-1.52935
10.0095
-1.53845
10.5478
-1.52638
11.0686
-1.53313
11.5957
-1.60464
12.171
-1.78158
12.8529
-2.09563
13.7173
-2.56471
14.8554
-3.17601
16.3488
-3.84029
18.1762
-4.29719
19.9615
-3.99198
20.7976
-2.35171
21.1597
-1.21304
21.2878
-0.442818
21.2736
0.148923
21.0912
0.760391
20.5984
1.54238
19.6095
2.47373
18.79
2.44852
18.1513
2.33651
17.4988
2.52744
16.6091
3.11134
15.317
3.97484
13.7314
4.69557
11.9187
5.25313
10.0211
5.52234
8.15131
5.54103
6.36334
5.41298
4.66777
5.23093
3.05228
5.0568
1.4959
4.92614
4.85702
1.87166
5.97548
2.91049
5.24846
3.28411
4.29544
3.31054
3.4238
3.20048
2.72933
3.05405
2.20338
2.90967
1.80753
2.77989
1.50526
2.66782
1.26937
2.57338
1.08103
2.49541
0.927456
2.43252
0.799907
2.38327
0.692326
2.34636
0.600446
2.32054
0.521213
2.30469
0.45241
2.29774
0.392409
2.2987
0.339999
2.3066
0.294275
2.32054
0.254546
2.3396
0.220278
2.36292
0.191039
2.38965
0.166457
2.41894
0.146189
2.45003
0.129896
2.48216
0.117229
2.51471
0.10782
2.54711
0.10129
2.5789
0.0972622
2.60972
0.0953788
2.63927
0.0953157
2.6673
0.0967995
2.69358
0.0996163
2.71791
0.103606
2.7401
0.108644
2.75994
0.11462
2.77727
0.121409
2.79193
0.128856
2.80381
0.136761
2.81287
0.144887
2.81912
0.152965
2.82268
0.160707
2.82374
0.16782
2.82255
0.174022
2.81945
0.179048
2.81484
0.182663
2.80919
0.18467
2.803
0.184917
2.7968
0.183304
2.79112
0.179789
2.78651
0.1744
2.78348
0.16723
2.7825
0.15844
2.78396
0.148249
2.78819
0.136926
2.79543
0.12478
2.80583
0.112142
2.81944
0.0993624
2.8362
0.0867885
2.85597
0.0747571
2.87852
0.0635782
2.90353
0.0535236
2.93061
0.0448132
2.95935
0.0376027
2.98929
0.0319718
3.01998
0.0279176
3.05101
0.0253567
3.08201
0.0241374
3.11269
0.0240593
3.14283
0.0248975
3.17226
0.0264267
3.2009
0.0284417
3.22869
0.0307706
3.25563
0.0332808
3.28171
0.0358722
3.30695
0.0384624
3.33137
0.0409702
3.35501
0.0433039
3.37791
0.0453548
3.4002
0.0469949
3.42201
0.0480791
3.44354
0.048448
3.46501
0.0479364
3.4867
0.0463875
3.50894
0.0436648
3.53207
0.0396573
3.55647
0.0342777
3.5825
0.0274561
3.61057
0.0191367
3.64105
0.00927156
3.67435
-0.00218993
3.71088
-0.0153157
3.75105
-0.0302029
3.79531
-0.0469837
3.84415
-0.0658281
3.89811
-0.0869527
3.95778
-0.110634
4.02383
-0.137217
4.09704
-0.167118
4.17829
-0.200835
4.26861
-0.238954
4.36921
-0.282169
4.48147
-0.331298
4.60701
-0.38728
4.74776
-0.45118
4.90595
-0.524185
5.08424
-0.607596
5.28567
-0.702788
5.51386
-0.811114
5.77299
-0.933755
6.06785
-1.07144
6.40377
-1.22403
6.78636
-1.38977
7.22078
-1.56419
7.71027
-1.73855
8.25324
-1.89808
8.83871
-2.02122
9.44139
-2.08263
10.0216
-2.06597
10.5411
-1.99019
10.9971
-1.93079
11.4188
-1.96511
11.857
-2.15478
12.3838
-2.55182
13.106
-3.20696
14.1911
-4.16456
15.8919
-5.41384
18.4814
-6.70026
21.6018
-6.90277
21.9362
-2.59127
21.9299
-1.13618
21.8796
-0.333906
21.8851
0.199658
21.8732
0.83838
21.5298
1.96389
19.5843
4.50927
18.678
3.4412
18.3422
2.75454
18.0827
2.86895
17.4726
3.80622
16.0377
5.49754
14.2889
6.53094
12.1879
7.43627
10.0398
7.74611
8.02326
7.62642
6.18129
7.31839
4.49364
6.97834
2.92162
6.68679
1.42678
6.48048
6.37452
1.14465
4.86655
1.95747
4.49082
2.41246
3.92678
2.61608
3.33967
2.67452
2.81291
2.65819
2.37015
2.60741
2.00708
2.544
1.71062
2.47949
1.46711
2.41981
1.265
2.36786
1.09525
2.32494
0.951019
2.29139
0.82719
2.26712
0.719945
2.25174
0.626428
2.24468
0.544497
2.24533
0.472537
2.25297
0.409328
2.26688
0.353943
2.28627
0.305674
2.31036
0.263967
2.33834
0.228374
2.36938
0.198502
2.40265
0.17398
2.43736
0.154421
2.47276
0.139406
2.50818
0.128474
2.54308
0.12113
2.57702
0.11687
2.60966
0.115208
2.64076
0.11571
2.67012
0.118028
2.69757
0.12191
2.72295
0.127191
2.74607
0.133758
2.76673
0.141512
2.78472
0.150331
2.79984
0.160033
2.81194
0.170373
2.82094
0.181038
2.82686
0.191672
2.8298
0.201891
2.82994
0.211307
2.82757
0.219548
2.82306
0.226267
2.81685
0.231157
2.80944
0.233954
2.80139
0.234453
2.79328
0.232515
2.78573
0.228078
2.77934
0.221174
2.77469
0.211924
2.77231
0.200541
2.77263
0.187315
2.77604
0.172605
2.78279
0.156817
2.79305
0.140392
2.80686
0.123789
2.82417
0.107466
2.84479
0.0918683
2.86847
0.0774071
2.89482
0.064447
2.9234
0.0532863
2.95372
0.0441364
2.98523
0.0371045
3.01742
0.0321823
3.04979
0.0292472
3.08194
0.0280778
3.11353
0.0283828
3.14436
0.029838
3.17428
0.032125
3.20323
0.0349648
3.2312
0.0381376
3.25822
0.0414871
3.2843
0.0449071
3.30946
0.0483169
3.33371
0.0516355
3.35706
0.0547632
3.37955
0.0575717
3.40128
0.0598988
3.42238
0.0615505
3.44303
0.0623097
3.46346
0.061953
3.48398
0.0602713
3.50493
0.0570862
3.52669
0.0522561
3.54964
0.0456743
3.57418
0.0372653
3.6007
0.0269778
3.62958
0.0147726
3.66122
0.000604067
3.69599
-0.0155983
3.73427
-0.0339401
3.77647
-0.0545677
3.82303
-0.0776777
3.87442
-0.103528
3.9312
-0.132451
3.99393
-0.16486
4.06332
-0.201255
4.14017
-0.242235
4.2254
-0.288516
4.32008
-0.340954
4.42549
-0.400553
4.54311
-0.46848
4.67475
-0.546078
4.82254
-0.634882
4.98904
-0.736621
5.17735
-0.853198
5.39122
-0.986622
5.6353
-1.1389
5.91526
-1.31178
6.23803
-1.50633
6.61194
-1.72209
7.04643
-1.95553
7.55073
-2.19743
8.1301
-2.42867
8.7773
-2.6148
9.45805
-2.7034
10.0974
-2.63858
10.6005
-2.42278
10.9628
-2.22072
11.2291
-2.15725
11.4599
-2.30817
11.7286
-2.73724
12.1484
-3.5328
12.9419
-4.84445
14.6055
-6.92515
18.2789
-10.1254
25.9133
-14.3407
23.3913
-24.9406
22.7322
-7.53268
22.4131
0.333305
22.5238
1.54235
22.9987
4.56217
24.0751
10.302
18.5163
10.1823
17.9914
4.05958
18.4566
2.37208
19.0199
2.38972
19.164
3.75667
17.0712
7.69955
15.1943
8.51801
12.4978
10.2376
9.92008
10.4166
7.71523
9.91135
5.84124
9.2625
4.2021
8.68096
2.71531
8.23347
1.32082
7.93538
7.78689
0.768917
4.18244
1.39343
3.97033
1.82535
3.62102
2.08932
3.21865
2.23176
2.82076
2.29513
2.45628
2.31094
2.13507
2.30049
1.85697
2.27737
1.61761
2.25006
1.41143
2.22363
1.23309
2.20111
1.07798
2.18415
0.942306
2.17361
0.82303
2.1698
0.717764
2.17272
0.62464
2.18212
0.542205
2.19759
0.469339
2.21861
0.405182
2.24456
0.349076
2.27477
0.300508
2.30847
0.259061
2.34486
0.224368
2.38309
0.196062
2.42234
0.173735
2.46182
0.156911
2.50084
0.145026
2.53882
0.137447
2.57535
0.133503
2.61016
0.132539
2.64308
0.133989
2.674
0.13742
2.70285
0.142559
2.72952
0.149265
2.75383
0.157479
2.77555
0.167154
2.79442
0.178196
2.81018
0.190412
2.8226
0.203505
2.83158
0.217075
2.83708
0.230656
2.83921
0.243746
2.83818
0.255845
2.83429
0.266478
2.82795
0.275207
2.81965
0.281642
2.80994
0.285444
2.79945
0.28634
2.78885
0.28414
2.77883
0.278756
2.77009
0.270218
2.76331
0.258681
2.75908
0.244416
2.75792
0.227802
2.76025
0.209299
2.76637
0.189432
2.77645
0.168765
2.79054
0.147883
2.80857
0.127371
2.83033
0.107796
2.85551
0.0896917
2.88366
0.0735332
2.91425
0.059715
2.94669
0.0485214
2.98031
0.0400978
3.01448
0.0344308
3.04862
0.0313448
3.08224
0.0305204
3.11499
0.0315371
3.14664
0.0339309
3.17712
0.037257
3.2064
0.0411438
3.23455
0.0453218
3.26164
0.0496236
3.28771
0.0539577
3.31278
0.0582688
3.33683
0.0624971
3.35986
0.0665497
3.38188
0.0702825
3.40294
0.0734939
3.42314
0.0759296
3.44267
0.0772995
3.46178
0.0773061
3.48079
0.0756743
3.5001
0.0721734
3.52011
0.066628
3.54124
0.0589188
3.5639
0.048976
3.5885
0.0367666
3.61542
0.0222734
3.64502
0.00546797
3.67765
-0.013707
3.71364
-0.0353521
3.75336
-0.0596198
3.79717
-0.0867265
3.8455
-0.116964
3.89879
-0.150708
3.95754
-0.188429
4.02234
-0.230699
4.09389
-0.278206
4.17296
-0.331781
4.26048
-0.392418
4.35756
-0.46129
4.46552
-0.539777
4.58595
-0.629491
4.7208
-0.732315
4.87247
-0.850418
5.04392
-0.98628
5.23895
-1.14268
5.46242
-1.32267
5.72071
-1.52945
6.02227
-1.76606
6.3785
-2.03476
6.80452
-2.33542
7.31949
-2.66226
7.94398
-2.9967
8.6887
-3.29331
9.52288
-3.45753
10.3132
-3.33459
10.8025
-2.81919
11.0263
-2.35662
11.0782
-2.12459
11.0308
-2.1763
10.9331
-2.55155
10.8368
-3.34083
10.8612
-4.75893
11.4052
-7.33275
14.0637
-12.5687
15.3134
-16.6878
40.7992
-33.333
30.5982
-26.3419
23.6222
-4.49863
25.5436
12.4863
28.7385
15.0439
23.9555
7.41105
12.3935
1.8415
16.3039
2.48802
18.4743
3.06429
20.3869
5.96112
23.1068
12.1904
17.8896
13.0201
16.9138
9.60611
12.6768
14.5941
9.41482
13.786
7.06638
12.3494
5.2597
11.1447
3.75461
10.2524
2.41722
9.63234
1.17233
9.24155
9.05209
0.556815
3.75051
1.04411
3.61891
1.42298
3.38752
1.69144
3.10004
1.86728
2.79379
1.97391
2.49362
2.03285
2.21308
2.06112
1.9578
2.0712
1.72879
2.07172
1.52468
2.06852
1.34314
2.06543
1.18162
2.06487
1.0377
2.06834
0.909261
2.07668
0.794507
2.09029
0.691964
2.10926
0.600441
2.13343
0.519002
2.1625
0.446921
2.19599
0.383649
2.23332
0.328771
2.27378
0.281957
2.31655
0.242914
2.36077
0.211327
2.40552
0.186802
2.44994
0.168818
2.49326
0.156701
2.53487
0.149636
2.57439
0.146721
2.61161
0.147071
2.64651
0.149934
2.67914
0.154785
2.70956
0.16135
2.73773
0.169566
2.7635
0.179495
2.78659
0.191205
2.80664
0.204672
2.82327
0.219714
2.83618
0.235969
2.84516
0.252923
2.85017
0.269961
2.85131
0.286432
2.84881
0.301699
2.84302
0.315171
2.83439
0.326312
2.82345
0.33464
2.81084
0.339727
2.79725
0.341216
2.78346
0.338847
2.77029
0.33249
2.75856
0.322169
2.74904
0.308076
2.74247
0.290557
2.73942
0.270095
2.74039
0.247279
2.7457
0.222772
2.75557
0.197283
2.77003
0.171541
2.78899
0.146275
2.81223
0.122195
2.83935
0.0999746
2.86984
0.0802268
2.90306
0.0634705
2.93826
0.0500902
2.97464
0.0402898
3.0114
0.0340558
3.0478
0.0311416
3.08326
0.0310884
3.11738
0.0332859
3.14997
0.0370656
3.181
0.0418049
3.21058
0.047012
3.23886
0.0523685
3.26597
0.05772
3.29202
0.0630269
3.31701
0.0682985
3.34089
0.0735297
3.3636
0.0786546
3.38509
0.0835184
3.40537
0.0878711
3.42451
0.0913787
3.44268
0.0936543
3.46015
0.094301
3.47729
0.0929543
3.49455
0.0893167
3.5124
0.0831758
3.53129
0.0744073
3.55169
0.0629654
3.574
0.0488562
3.59861
0.0321032
3.62584
0.0127175
3.656
-0.00932873
3.68937
-0.0341178
3.72625
-0.0617996
3.76694
-0.0926021
3.81176
-0.126842
3.86107
-0.164929
3.91527
-0.207378
3.97484
-0.254815
4.04031
-0.308001
4.11232
-0.36786
4.19161
-0.435497
4.27907
-0.512227
4.3758
-0.599615
4.48313
-0.699516
4.6027
-0.814126
4.73661
-0.946037
4.88752
-1.0983
5.05896
-1.27448
5.25565
-1.47877
5.48409
-1.71605
5.75358
-1.99195
6.07784
-2.31277
6.47768
-2.68484
6.98505
-3.11242
7.64736
-3.59056
8.52448
-4.08335
9.64583
-4.46213
10.8286
-4.36592
11.2651
-3.13836
11.2583
-2.255
11.0265
-1.80925
10.6556
-1.72627
10.1438
-1.96092
9.41868
-2.53436
8.28734
-3.54184
6.16926
-5.124
9.94453
-7.23385
-1.33176
-11.9028
47.7903
-5.27353
52.4415
-9.7916
40.6071
2.93581
28.1013
11.4195
21.1056
16.3991
18.3859
21.154
13.04
23.2703
16.8801
26.3042
21.3711
26.3307
26.6161
16.9403
23.9366
12.0053
14.4756
10.7186
21.9018
25.8338
11.8688
24.7291
7.9782
17.7801
5.86165
14.5545
4.36744
12.7144
3.13451
11.5523
2.02643
10.8025
0.982869
10.347
10.1298
0.425215
3.46782
0.812728
3.37787
1.1355
3.21296
1.38519
2.9971
1.56712
2.75432
1.69337
2.50374
1.77757
2.25825
1.83211
2.02541
1.86709
1.80892
1.89018
1.61004
1.907
1.4286
1.92151
1.26372
1.93643
1.11423
1.95359
0.978873
1.97414
0.856487
1.99877
0.746029
2.02782
0.646621
2.06135
0.557555
2.09923
0.478289
2.14112
0.40843
2.18651
0.347712
2.23473
0.295949
2.28496
0.252986
2.33624
0.218618
2.38754
0.192517
2.43782
0.174146
2.48619
0.162706
2.53196
0.157134
2.57474
0.156192
2.61447
0.15865
2.65136
0.163493
2.6857
0.170074
2.71778
0.178157
2.74766
0.187851
2.77521
0.199448
2.80006
0.213233
2.82168
0.229324
2.83953
0.247565
2.85313
0.267511
2.8622
0.288476
2.86664
0.309637
2.86658
0.330138
2.86228
0.349175
2.85416
0.366033
2.84272
0.380079
2.82854
0.390738
2.81232
0.397476
2.79488
0.399824
2.7771
0.397422
2.75997
0.390071
2.74446
0.377783
2.73153
0.360791
2.722
0.33954
2.71661
0.314647
2.71588
0.286859
2.72021
0.257008
2.72982
0.225972
2.74476
0.194645
2.76491
0.163917
2.79001
0.134661
2.8196
0.107716
2.85308
0.0838626
2.88968
0.0637872
2.92846
0.0480186
2.96841
0.0368575
3.00848
0.0303065
3.04775
0.0280292
3.08546
0.0293645
3.12116
0.033416
3.15471
0.0392069
3.18621
0.045854
3.21594
0.0527059
3.24421
0.059402
3.27128
0.0658463
3.29729
0.072117
3.32224
0.0783542
3.34601
0.084657
3.36846
0.0910131
3.38944
0.0972622
3.40888
0.103091
3.42678
0.108057
3.44332
0.111636
3.4588
0.113291
3.47365
0.11253
3.48841
0.108969
3.50363
0.102353
3.51985
0.0925717
3.53758
0.079626
3.55725
0.0635921
3.57922
0.0445679
3.6038
0.0226289
3.63121
-0.00220345
3.66169
-0.0299798
3.69545
-0.0608396
3.7327
-0.0950156
3.77367
-0.132841
3.81862
-0.174749
3.86783
-0.221283
3.92165
-0.273108
3.98045
-0.331036
4.04469
-0.396051
4.11488
-0.46934
4.19169
-0.552323
4.2759
-0.646709
4.36852
-0.754542
4.47079
-0.878276
4.58435
-1.02085
4.71134
-1.1858
4.85467
-1.37738
5.01836
-1.60079
5.20818
-1.86248
5.43276
-2.17061
5.70576
-2.53586
6.05011
-2.97279
6.50691
-3.50207
7.15457
-4.15288
8.1457
-4.95742
9.74204
-5.88472
12.0561
-6.41517
12.1485
-3.11402
11.704
-1.73227
11.1095
-1.15093
10.421
-0.979846
9.57036
-1.05477
8.4112
-1.32077
6.70518
-1.78296
4.05941
-2.42977
5.27562
-3.59216
5.29747
-5.65528
43.2722
-3.14262
65.1689
9.36636
49.0908
19.0136
33.0809
27.4282
25.8605
38.3572
20.5022
46.1011
16.074
49.8128
16.9066
50.2536
11.9807
45.1402
21.6812
38.1584
22.6499
37.1342
29.5908
48.927
20.7972
43.586
4.91972
21.6923
4.75262
18.0118
4.02151
15.3546
3.20535
13.5983
2.38476
12.4372
1.57093
11.6779
0.765647
11.2146
10.993
0.335259
3.27654
0.64782
3.20964
0.919632
3.08393
1.14241
2.91356
1.31653
2.71439
1.44787
2.50059
1.54473
2.2832
1.61563
2.0699
1.66821
1.86552
1.70874
1.6728
1.74212
1.49302
1.77201
1.32656
1.80108
1.17323
1.8312
1.03255
1.86368
0.90393
1.89936
0.786737
1.93875
0.680407
1.98209
0.584473
2.02937
0.498598
2.0804
0.422583
2.13475
0.356354
2.19177
0.299932
2.2506
0.253372
2.31014
0.216669
2.36916
0.189641
2.42638
0.171792
2.48062
0.162185
2.53102
0.159412
2.5772
0.161729
2.61932
0.167361
2.65794
0.174873
2.69379
0.183455
2.72747
0.192983
2.75926
0.20389
2.789
0.216889
2.81615
0.232652
2.83992
0.251539
2.85947
0.273443
2.87409
0.297779
2.88336
0.323597
2.88714
0.349752
2.88561
0.375101
2.87914
0.398636
2.86821
0.419526
2.85337
0.437066
2.83528
0.450597
2.81467
0.459463
2.79248
0.463038
2.76975
0.460804
2.74768
0.452456
2.72747
0.437973
2.71027
0.417647
2.69711
0.39205
2.68882
0.361983
2.68603
0.328397
2.68918
0.29233
2.6985
0.254857
2.71403
0.217058
2.73566
0.18
2.76306
0.144731
2.79575
0.112281
2.83301
0.0836411
2.87391
0.0597206
2.9173
0.0412658
2.96186
0.0287451
3.00621
0.0222204
3.04908
0.0212491
3.08951
0.0248758
3.12695
0.0317632
3.16135
0.0404522
3.19306
0.0496631
3.22263
0.058526
3.25065
0.0666636
3.27755
0.0741251
3.30353
0.0812206
3.32854
0.0883253
3.35237
0.0957162
3.37471
0.10347
3.39527
0.111421
3.41384
0.119169
3.43036
0.126116
3.44498
0.131542
3.45804
0.134698
3.47009
0.134911
3.4818
0.131675
3.49385
0.124695
3.5069
0.113896
3.52154
0.0993709
3.53823
0.0813135
3.55729
0.0599401
3.57897
0.0354263
3.60344
0.00786503
3.63083
-0.0227555
3.66127
-0.0565567
3.69487
-0.0937734
3.73176
-0.134747
3.77208
-0.179925
3.81601
-0.229862
3.86372
-0.285245
3.91544
-0.34691
3.9714
-0.41587
4.0319
-0.493353
4.0973
-0.580841
4.16807
-0.680126
4.24478
-0.793373
4.32821
-0.923205
4.4194
-1.07279
4.51976
-1.24599
4.63126
-1.44752
4.75668
-1.68322
4.90005
-1.96051
5.06751
-2.2891
5.26883
-2.68239
5.52083
-3.16048
5.8561
-3.75739
6.35003
-4.54117
7.2184
-5.67705
9.21159
-7.65427
15.3573
-12.1954
13.5302
-13.2633
12.2854
-6.25887
11.2806
-2.2132
10.346
-0.314954
9.30435
0.129753
7.94902
0.678725
6.05836
1.42722
2.89703
0.742787
3.2125
-0.955877
7.81012
-2.1737
55.7812
21.8931
74.8161
39.8557
57.5054
36.3243
44.0099
40.9238
33.6044
48.7613
24.2139
55.4893
16.5148
57.504
11.7932
54.9612
4.99889
51.9182
20.6569
56.3966
34.4427
57.0364
24.2498
48.9346
-1.0965
27.0287
1.23922
20.4249
2.09541
17.2098
2.26521
15.2439
2.04433
13.8806
1.62545
12.9174
1.10759
12.2564
0.544089
11.8407
11.6383
0.268365
3.14616
0.522104
3.09285
0.749268
2.99116
0.943234
2.8501
1.10274
2.68054
1.23049
2.4931
1.33142
2.2969
1.41125
2.09908
1.47548
1.90484
1.52897
1.71767
1.57566
1.5398
1.61868
1.37246
1.6604
1.21623
1.70258
1.07123
1.74649
0.937317
1.79303
0.814236
1.84282
0.701688
1.89621
0.599431
1.95335
0.507329
2.01417
0.425392
2.07832
0.353779
2.14521
0.292781
2.21389
0.242758
2.28311
0.204029
2.35132
0.176697
2.41678
0.160412
2.47785
0.154127
2.53333
0.155966
2.58283
0.163374
2.62683
0.173663
2.66652
0.184702
2.70332
0.195445
2.73838
0.206019
2.77226
0.217454
2.80476
0.231205
2.83504
0.248607
2.86183
0.270419
2.88381
0.29659
2.89991
0.326289
2.90951
0.358119
2.91249
0.390429
2.90915
0.421648
2.90003
0.450528
2.88575
0.476171
2.8669
0.497875
2.84414
0.514943
2.81825
0.526572
2.79024
0.531896
2.7614
0.530144
2.7332
0.520825
2.70714
0.503865
2.68468
0.479636
2.66704
0.448903
2.65523
0.412716
2.64996
0.372299
2.65171
0.328946
2.6607
0.283964
2.67697
0.238629
2.70039
0.194191
2.73061
0.151882
2.76711
0.112939
2.80909
0.078607
2.85546
0.0500996
2.90478
0.0284951
2.95533
0.0145589
3.00524
0.0085111
3.05271
0.00980943
3.09639
0.0170713
3.13564
0.0282585
3.17057
0.0411306
3.20192
0.0537814
3.23077
0.0650387
3.25811
0.074574
3.28465
0.0827466
3.31063
0.0902937
3.33593
0.0979919
3.36012
0.106399
3.38266
0.115721
3.40302
0.12578
3.42079
0.136046
3.43579
0.145697
3.44813
0.153721
3.45825
0.159054
3.46686
0.160749
3.47482
0.158127
3.48305
0.150855
3.49238
0.138941
3.50349
0.122642
3.51685
0.102343
3.53277
0.0784435
3.5514
0.05126
3.57282
0.0209794
3.59703
-0.0123616
3.62406
-0.0488689
3.6539
-0.0887824
3.68658
-0.132452
3.72215
-0.180328
3.76062
-0.23297
3.80206
-0.291059
3.84648
-0.355424
3.89391
-0.427075
3.94441
-0.507236
3.99802
-0.597392
4.05482
-0.69935
4.11495
-0.815315
4.17863
-0.947967
4.2462
-1.10057
4.31823
-1.27709
4.39556
-1.48239
4.47939
-1.72245
4.57146
-2.00477
4.67422
-2.33895
4.79075
-2.73783
4.92392
-3.21941
5.07232
-3.81101
5.21415
-4.55753
5.24118
-5.53762
4.67041
-6.88103
14.2894
-8.65121
20.5346
-16.9041
16.3311
-17.2106
13.1788
-9.8336
10.7907
-1.75937
9.85332
3.91115
8.69752
4.44256
5.37393
1.57429
1.19836
0.142521
1.99468
0.905538
31.8769
1.41359
73.7438
30.6545
71.2848
42.3147
62.1049
45.5043
51.8474
51.1809
40.3324
60.2761
26.2287
69.593
13.9719
69.7611
8.75024
60.1825
9.47725
51.1907
21.2968
44.5726
26.3409
34.8767
2.34383
16.4947
-7.70026
9.69676
-1.97587
14.7516
0.129496
15.1565
0.901846
14.5261
1.08117
13.7589
0.964412
13.0932
0.691888
12.5885
0.341728
12.2537
12.0857
0.215054
3.06075
0.420407
3.01569
0.608214
2.9289
0.773673
2.80656
0.915293
2.65652
1.03429
2.48698
1.13361
2.30555
1.217
2.11877
1.28832
1.93181
1.35109
1.7486
1.40832
1.57192
1.46245
1.4036
1.5154
1.24473
1.56867
1.09588
1.6234
0.957255
1.68048
0.828838
1.74056
0.710537
1.80411
0.602286
1.87142
0.504125
1.94256
0.416268
2.01733
0.339132
2.09519
0.273341
2.17516
0.219679
2.25578
0.178959
2.33503
0.151789
2.41049
0.138209
2.47969
0.137199
2.54074
0.146271
2.59312
0.161516
2.63787
0.178643
2.67726
0.194302
2.71389
0.20712
2.74981
0.21774
2.78601
0.228276
2.82217
0.241472
2.85685
0.259779
2.888
0.284589
2.91351
0.315881
2.93174
0.352361
2.94182
0.391876
2.94371
0.43193
2.93803
0.470285
2.92567
0.505424
2.90745
0.536534
2.88397
0.563113
2.85577
0.58453
2.82357
0.599795
2.78849
0.60765
2.75209
0.606877
2.71624
0.596671
2.68292
0.576869
2.65395
0.547981
2.63086
0.511069
2.61481
0.467547
2.60661
0.419007
2.60672
0.367069
2.61536
0.313302
2.63254
0.259186
2.65808
0.206138
2.69167
0.155553
2.73278
0.108877
2.78058
0.0676446
2.83385
0.033477
2.89084
0.00796262
2.94929
-0.00760286
3.00653
-0.0126222
3.05997
-0.00766118
3.10758
0.00528404
3.14851
0.0230216
3.18322
0.0419921
3.21318
0.0592664
3.2403
0.0732585
3.26629
0.0838406
3.29219
0.0919936
3.31833
0.0992218
3.34434
0.106964
3.36944
0.116191
3.39272
0.127266
3.41329
0.139969
3.43044
0.153577
3.44381
0.166947
3.45347
0.178634
3.45995
0.18709
3.46423
0.190939
3.46755
0.189253
3.47113
0.181677
3.47608
0.168385
3.48319
0.149919
3.49295
0.126976
3.50559
0.100225
3.52112
0.0701792
3.53948
0.0371393
3.56052
0.00118705
3.58414
-0.0377908
3.61023
-0.0800515
3.63871
-0.125959
3.6695
-0.175968
3.70254
-0.230622
3.73769
-0.290574
3.77483
-0.356616
3.81375
-0.429708
3.85425
-0.511021
3.89606
-0.601984
3.93885
-0.704346
3.9823
-0.820255
4.02602
-0.952338
4.06968
-1.1038
4.11294
-1.27852
4.1555
-1.48119
4.19707
-1.71743
4.23727
-1.994
4.27534
-2.3191
4.30916
-2.70265
4.33232
-3.15659
4.32581
-3.69403
4.23406
-4.32438
3.89777
-5.03458
2.90023
-5.73482
6.03647
-6.17134
20.2282
-9.77351
23.708
-7.13443
21.253
0.333374
16.4613
1.32484
10.3847
4.88984
5.82925
9.13768
3.94215
15.3888
1.96138
22.9925
2.50273
35.0093
61.1178
58.001
85.404
65.203
74.4744
53.2443
67.7815
52.1971
60.9426
58.0195
49.6493
71.5693
26.3968
92.8457
4.39328
91.7645
-0.241501
64.817
2.85911
48.0902
11.6009
35.8311
7.95895
24.2718
-4.45415
13.5607
-2.64539
12.3514
-1.57101
13.728
-0.50086
14.1391
0.134613
13.9451
0.41544
13.5342
0.45976
13.1065
0.357057
12.7502
0.173794
12.5004
12.3709
0.169993
3.01191
0.333609
2.97175
0.485879
2.89386
0.623633
2.78283
0.745749
2.64467
0.852866
2.48603
0.946817
2.31351
1.03004
2.13316
1.10511
1.95014
1.17441
1.76862
1.24
1.59175
1.30358
1.42174
1.36655
1.26004
1.43004
1.10745
1.49499
0.964385
1.56218
0.830957
1.63231
0.707178
1.70595
0.593079
1.78356
0.48882
1.86542
0.394785
1.95154
0.311657
2.04152
0.240447
2.13444
0.182482
2.22861
0.139287
2.32145
0.11234
2.40948
0.102565
2.48876
0.109394
2.55599
0.129672
2.61025
0.157104
2.65353
0.184474
2.69008
0.206175
2.72451
0.220464
2.76035
0.229053
2.7992
0.235979
2.84047
0.246195
2.88166
0.264041
2.91929
0.2919
2.94999
0.329629
2.97126
0.375069
2.98188
0.424785
2.98207
0.474841
2.97317
0.521868
2.95678
0.564095
2.93403
0.601191
2.90539
0.633291
2.87104
0.660052
2.83143
0.680223
2.78772
0.691835
2.74188
0.692857
2.69644
0.681935
2.65403
0.658789
2.61703
0.624193
2.58734
0.57969
2.56627
0.52725
2.55467
0.468971
2.55296
0.406886
2.56125
0.342854
2.57949
0.278544
2.6075
0.21549
2.64499
0.155192
2.69155
0.0992508
2.74641
0.0495046
2.80834
0.00809356
2.87528
-0.0226223
2.94427
-0.0404012