/*--------------------------------*- C++ -*----------------------------------*\
| =========                 |                                                 |
| \\      /  F ield         | OpenFOAM: The Open Source CFD Toolbox           |
|  \\    /   O peration     | Version:  2.1.0                                 |
|   \\  /    A nd           | Web:      www.OpenFOAM.org                      |
|    \\/     M anipulation  |                                                 |
\*---------------------------------------------------------------------------*/
FoamFile
{
    version     2.0;
    format      ascii;
    class       volScalarField;
    location    "36135";
    object      pw;
}
// * * * * * * * * * * * * * * * * * * * * * * * * * * * * * * * * * * * * * //

dimensions      [1 -1 -2 0 0 0 0];

internalField   nonuniform List<scalar> 
15000
(
6455.99
6437.4
6426.18
6418.42
6412.56
6407.84
6403.83
6400.27
6397.03
6394.02
6391.18
6388.47
6385.86
6383.32
6380.85
6378.42
6376.02
6373.64
6371.27
6368.9
6366.53
6364.14
6361.74
6359.32
6356.88
6354.41
6351.91
6349.38
6346.83
6344.25
6341.64
6339
6336.33
6333.65
6330.94
6328.2
6325.45
6322.69
6319.91
6317.11
6314.31
6311.5
6308.69
6305.88
6303.06
6300.25
6297.43
6294.63
6291.82
6289.02
6286.22
6283.42
6280.63
6277.83
6275.03
6272.22
6269.41
6266.59
6263.75
6260.89
6258.02
6255.13
6252.21
6249.27
6246.3
6243.31
6240.28
6237.23
6234.15
6231.04
6227.9
6224.73
6221.53
6218.3
6215.05
6211.77
6208.47
6205.14
6201.79
6198.41
6195.01
6191.59
6188.15
6184.68
6181.19
6177.67
6174.13
6170.57
6166.97
6163.35
6159.69
6155.99
6152.26
6148.48
6144.66
6140.78
6136.85
6132.85
6128.78
6124.63
6120.39
6116.06
6111.61
6107.04
6102.34
6097.48
6092.44
6087.21
6081.76
6076.06
6070.09
6063.8
6057.16
6050.13
6042.68
6034.76
6026.34
6017.41
6007.93
5997.9
5987.31
5976.13
5964.33
5951.85
5938.56
5924.34
5909.03
5892.5
5874.69
5855.75
5835.95
5815.61
5795.02
5774.41
5754.01
5734.03
5714.66
5696.01
5678.14
5661.15
5645.21
5630.52
5617.27
5605.64
5595.7
5587.49
5581.01
5576.2
5573.05
5571.49
6437.37
6430.03
6422.71
6416.52
6411.39
6407.04
6403.24
6399.82
6396.66
6393.72
6390.92
6388.25
6385.67
6383.16
6380.71
6378.3
6375.92
6373.55
6371.19
6368.83
6366.47
6364.09
6361.7
6359.28
6356.84
6354.37
6351.88
6349.36
6346.8
6344.22
6341.61
6338.97
6336.31
6333.62
6330.91
6328.17
6325.42
6322.65
6319.87
6317.08
6314.27
6311.46
6308.65
6305.83
6303.02
6300.2
6297.39
6294.58
6291.78
6288.97
6286.18
6283.38
6280.59
6277.79
6274.99
6272.19
6269.38
6266.56
6263.73
6260.87
6258.01
6255.11
6252.2
6249.26
6246.29
6243.3
6240.28
6237.22
6234.14
6231.03
6227.89
6224.72
6221.52
6218.29
6215.04
6211.76
6208.46
6205.13
6201.78
6198.4
6195
6191.58
6188.14
6184.67
6181.18
6177.66
6174.13
6170.56
6166.97
6163.34
6159.69
6156
6152.27
6148.5
6144.68
6140.8
6136.88
6132.88
6128.82
6124.68
6120.45
6116.13
6111.7
6107.14
6102.46
6097.61
6092.6
6087.4
6081.97
6076.31
6070.36
6064.11
6057.51
6050.52
6043.1
6035.22
6026.83
6017.91
6008.44
5998.42
5987.85
5976.71
5964.98
5952.6
5939.46
5925.39
5910.21
5893.72
5875.79
5856.55
5836.44
5815.83
5794.99
5774.16
5753.54
5733.37
5713.9
5695.18
5677.21
5660.06
5643.91
5629.02
5615.62
5603.89
5593.92
5585.72
5579.27
5574.51
5571.38
5569.85
6426.09
6422.65
6418.1
6413.55
6409.37
6405.59
6402.13
6398.94
6395.95
6393.12
6390.42
6387.82
6385.3
6382.84
6380.43
6378.06
6375.71
6373.37
6371.04
6368.7
6366.35
6363.99
6361.61
6359.2
6356.77
6354.31
6351.82
6349.3
6346.75
6344.17
6341.56
6338.92
6336.26
6333.57
6330.85
6328.12
6325.36
6322.59
6319.8
6317.01
6314.2
6311.38
6308.57
6305.75
6302.93
6300.11
6297.3
6294.49
6291.69
6288.89
6286.09
6283.3
6280.51
6277.72
6274.93
6272.13
6269.33
6266.51
6263.68
6260.84
6257.97
6255.09
6252.18
6249.24
6246.28
6243.28
6240.26
6237.21
6234.13
6231.02
6227.87
6224.7
6221.5
6218.28
6215.02
6211.74
6208.44
6205.11
6201.76
6198.38
6194.98
6191.56
6188.11
6184.65
6181.16
6177.65
6174.11
6170.55
6166.96
6163.34
6159.69
6156.01
6152.29
6148.52
6144.71
6140.85
6136.94
6132.96
6128.91
6124.79
6120.58
6116.28
6111.87
6107.35
6102.69
6097.89
6092.92
6087.76
6082.39
6076.79
6070.91
6064.73
6058.21
6051.3
6043.96
6036.14
6027.8
6018.92
6009.47
5999.46
5988.91
5977.84
5966.24
5954.07
5941.22
5927.5
5912.65
5896.3
5878.12
5858.16
5837.36
5816.2
5794.92
5773.64
5752.55
5731.95
5712.34
5693.55
5675.4
5657.9
5641.29
5625.98
5612.25
5600.33
5590.31
5582.15
5575.79
5571.12
5568.07
5566.58
6418.25
6416.38
6413.47
6410.18
6406.87
6403.67
6400.62
6397.71
6394.93
6392.26
6389.69
6387.19
6384.76
6382.38
6380.03
6377.71
6375.41
6373.11
6370.81
6368.5
6366.18
6363.84
6361.48
6359.09
6356.67
6354.22
6351.74
6349.22
6346.68
6344.1
6341.49
6338.85
6336.18
6333.49
6330.77
6328.03
6325.27
6322.49
6319.7
6316.9
6314.08
6311.26
6308.44
6305.62
6302.8
6299.98
6297.16
6294.35
6291.55
6288.75
6285.96
6283.18
6280.39
6277.61
6274.83
6272.04
6269.24
6266.44
6263.62
6260.78
6257.92
6255.05
6252.14
6249.21
6246.25
6243.26
6240.24
6237.19
6234.11
6231
6227.85
6224.68
6221.48
6218.25
6215
6211.72
6208.41
6205.08
6201.72
6198.34
6194.94
6191.52
6188.08
6184.61
6181.13
6177.62
6174.09
6170.53
6166.95
6163.34
6159.69
6156.02
6152.31
6148.56
6144.76
6140.92
6137.02
6133.06
6129.04
6124.94
6120.76
6116.5
6112.13
6107.64
6103.04
6098.29
6093.38
6088.3
6083.01
6077.5
6071.73
6065.66
6059.26
6052.47
6045.25
6037.54
6029.28
6020.45
6011
6000.98
5990.44
5979.45
5968.03
5956.17
5943.79
5930.68
5916.49
5900.6
5882.12
5860.51
5838.58
5816.65
5794.77
5772.88
5751.01
5729.48
5709.9
5691.22
5672.87
5654.79
5637.32
5621.28
5606.99
5594.8
5584.77
5576.74
5570.56
5566.07
5563.15
5561.72
6412.27
6411.13
6409.17
6406.76
6404.14
6401.47
6398.81
6396.2
6393.66
6391.18
6388.76
6386.39
6384.07
6381.78
6379.51
6377.26
6375.01
6372.77
6370.51
6368.25
6365.96
6363.65
6361.31
6358.94
6356.54
6354.1
6351.63
6349.12
6346.58
6344
6341.39
6338.75
6336.08
6333.38
6330.66
6327.92
6325.15
6322.36
6319.56
6316.75
6313.93
6311.1
6308.27
6305.44
6302.62
6299.79
6296.98
6294.17
6291.37
6288.57
6285.79
6283.01
6280.23
6277.46
6274.69
6271.91
6269.13
6266.34
6263.53
6260.71
6257.86
6254.99
6252.1
6249.17
6246.22
6243.23
6240.22
6237.17
6234.09
6230.97
6227.83
6224.65
6221.45
6218.22
6214.96
6211.68
6208.37
6205.03
6201.68
6198.3
6194.9
6191.47
6188.03
6184.57
6181.08
6177.58
6174.05
6170.5
6166.93
6163.33
6159.7
6156.04
6152.34
6148.61
6144.83
6141.01
6137.13
6133.2
6129.21
6125.14
6121
6116.78
6112.46
6108.03
6103.49
6098.81
6093.99
6089
6083.83
6078.43
6072.8
6066.88
6060.65
6054.03
6046.99
6039.44
6031.31
6022.53
6013.07
6002.97
5992.37
5981.41
5970.18
5958.72
5946.99
5934.84
5921.9
5907.3
5889.02
5863.1
5839.71
5816.98
5794.57
5772.04
5749.05
5724.97
5706.45
5688.46
5670.01
5650.99
5631.82
5614.75
5599.56
5587.06
5577.14
5569.42
5563.58
5559.38
5556.66
5555.34
6407.41
6406.64
6405.25
6403.42
6401.33
6399.1
6396.8
6394.49
6392.19
6389.92
6387.67
6385.44
6383.24
6381.06
6378.88
6376.71
6374.54
6372.36
6370.16
6367.94
6365.7
6363.42
6361.11
6358.77
6356.39
6353.96
6351.5
6349
6346.46
6343.89
6341.28
6338.63
6335.96
6333.26
6330.53
6327.77
6325
6322.2
6319.39
6316.57
6313.74
6310.9
6308.06
6305.22
6302.39
6299.56
6296.74
6293.93
6291.13
6288.34
6285.57
6282.8
6280.03
6277.27
6274.52
6271.76
6268.99
6266.21
6263.42
6260.61
6257.78
6254.93
6252.04
6249.13
6246.18
6243.2
6240.19
6237.14
6234.06
6230.94
6227.8
6224.62
6221.41
6218.18
6214.92
6211.63
6208.32
6204.98
6201.62
6198.24
6194.83
6191.41
6187.97
6184.51
6181.03
6177.53
6174.01
6170.46
6166.9
6163.31
6159.7
6156.05
6152.37
6148.66
6144.91
6141.11
6137.26
6133.37
6129.41
6125.39
6121.29
6117.12
6112.86
6108.5
6104.03
6099.45
6094.73
6089.86
6084.81
6079.57
6074.11
6068.39
6062.37
6055.99
6049.18
6041.86
6033.92
6025.23
6015.71
6005.4
5994.59
5983.57
5972.49
5961.46
5950.53
5939.69
5928.83
5917.42
5903.36
5888.05
5847.25
5816.65
5793.03
5767.48
5738.74
5714.79
5702.39
5686.09
5667.62
5647.23
5624.12
5606.23
5589.32
5576.64
5567.23
5560.16
5554.9
5551.15
5548.73
5547.56
6403.23
6402.67
6401.62
6400.2
6398.51
6396.64
6394.67
6392.64
6390.58
6388.5
6386.43
6384.36
6382.3
6380.23
6378.17
6376.09
6374
6371.89
6369.76
6367.59
6365.4
6363.16
6360.89
6358.57
6356.21
6353.81
6351.36
6348.86
6346.33
6343.75
6341.14
6338.5
6335.82
6333.11
6330.37
6327.61
6324.82
6322.01
6319.19
6316.35
6313.51
6310.66
6307.81
6304.96
6302.12
6299.28
6296.46
6293.65
6290.85
6288.07
6285.3
6282.54
6279.79
6277.05
6274.31
6271.57
6268.82
6266.06
6263.29
6260.51
6257.69
6254.85
6251.98
6249.08
6246.14
6243.17
6240.16
6237.11
6234.03
6230.91
6227.76
6224.58
6221.37
6218.13
6214.86
6211.57
6208.25
6204.91
6201.55
6198.16
6194.76
6191.33
6187.89
6184.43
6180.95
6177.46
6173.95
6170.42
6166.86
6163.29
6159.69
6156.07
6152.41
6148.72
6144.99
6141.23
6137.41
6133.55
6129.64
6125.66
6121.62
6117.51
6113.32
6109.04
6104.66
6100.18
6095.58
6090.84
6085.95
6080.9
6075.64
6070.16
6064.4
6058.32
6051.85
6044.86
6037.21
6028.69
6019.04
6008.22
5996.95
5985.69
5974.67
5964.01
5953.87
5944.45
5936.16
5929.99
5920.05
5921.38
5873.59
5821.15
5780.54
5752.44
5731.33
5712.95
5699.91
5683.03
5661.66
5635.04
5611.1
5596.63
5574.72
5562.86
5554.88
5549.02
5544.65
5541.51
5539.49
5538.51
6399.48
6399.05
6398.24
6397.1
6395.72
6394.15
6392.46
6390.68
6388.85
6386.98
6385.09
6383.18
6381.26
6379.32
6377.37
6375.4
6373.4
6371.37
6369.31
6367.21
6365.07
6362.88
6360.65
6358.36
6356.03
6353.64
6351.2
6348.71
6346.18
6343.61
6340.99
6338.34
6335.66
6332.94
6330.19
6327.42
6324.62
6321.79
6318.95
6316.1
6313.24
6310.37
6307.51
6304.64
6301.79
6298.95
6296.12
6293.31
6290.51
6287.73
6284.97
6282.23
6279.5
6276.78
6274.06
6271.34
6268.62
6265.89
6263.15
6260.38
6257.59
6254.77
6251.92
6249.03
6246.1
6243.13
6240.13
6237.08
6233.99
6230.87
6227.72
6224.53
6221.31
6218.07
6214.8
6211.5
6208.18
6204.83
6201.46
6198.08
6194.67
6191.24
6187.8
6184.34
6180.86
6177.38
6173.87
6170.35
6166.81
6163.26
6159.68
6156.07
6152.44
6148.78
6145.09
6141.35
6137.58
6133.76
6129.89
6125.97
6121.99
6117.95
6113.83
6109.64
6105.36
6101
6096.52
6091.94
6087.23
6082.37
6077.36
6072.15
6066.71
6061.01
6054.96
6048.45
6041.3
6033.15
6023.41
6011.35
5999.21
5987.5
5976.39
5965.97
5956.4
5947.99
5941.28
5937.22
5931.95
5926.65
5883.38
5818.21
5769.12
5736.04
5710.18
5689.68
5673.6
5656.7
5644.71
5623.03
5600.38
5570.79
5550
5545.08
5540.32
5536.3
5533.1
5530.71
5529.14
5528.38
6396.01
6395.67
6395.02
6394.1
6392.96
6391.65
6390.2
6388.65
6387.04
6385.37
6383.66
6381.92
6380.15
6378.35
6376.51
6374.65
6372.75
6370.81
6368.83
6366.8
6364.72
6362.59
6360.39
6358.14
6355.83
6353.46
6351.04
6348.56
6346.03
6343.45
6340.83
6338.17
6335.48
6332.75
6329.99
6327.2
6324.39
6321.55
6318.69
6315.81
6312.93
6310.04
6307.16
6304.28
6301.41
6298.56
6295.72
6292.91
6290.11
6287.34
6284.6
6281.87
6279.16
6276.46
6273.77
6271.09
6268.4
6265.7
6262.98
6260.25
6257.49
6254.69
6251.86
6248.98
6246.07
6243.1
6240.1
6237.05
6233.96
6230.83
6227.67
6224.48
6221.26
6218
6214.73
6211.42
6208.09
6204.74
6201.37
6197.97
6194.56
6191.13
6187.68
6184.23
6180.76
6177.27
6173.78
6170.27
6166.75
6163.21
6159.66
6156.08
6152.47
6148.84
6145.18
6141.49
6137.75
6133.98
6130.17
6126.3
6122.39
6118.42
6114.38
6110.29
6106.12
6101.87
6097.55
6093.13
6088.61
6083.98
6079.22
6074.32
6069.25
6063.98
6058.46
6052.61
6046.26
6039.04
6029.83
6014.47
6000.94
5988.65
5977.37
5967.03
5957.72
5949.77
5943.71
5940.82
5937.6
5929.79
5874.01
5799.2
5741.69
5697.68
5664.08
5639.86
5623.35
5611.56
5606.56
5585.9
5551.46
5527.21
5528.3
5527.06
5524.97
5522.7
5520.66
5519.03
5517.93
5517.38
6392.73
6392.46
6391.94
6391.19
6390.25
6389.15
6387.91
6386.58
6385.17
6383.7
6382.17
6380.59
6378.97
6377.31
6375.61
6373.86
6372.07
6370.23
6368.33
6366.38
6364.36
6362.29
6360.14
6357.93
6355.64
6353.29
6350.88
6348.4
6345.86
6343.28
6340.65
6337.99
6335.28
6332.55
6329.77
6326.97
6324.13
6321.27
6318.39
6315.49
6312.58
6309.67
6306.76
6303.86
6300.97
6298.11
6295.26
6292.44
6289.65
6286.89
6284.16
6281.45
6278.77
6276.1
6273.44
6270.79
6268.14
6265.48
6262.8
6260.1
6257.37
6254.61
6251.8
6248.94
6246.04
6243.08
6240.08
6237.02
6233.93
6230.79
6227.62
6224.42
6221.19
6217.93
6214.65
6211.34
6208
6204.64
6201.26
6197.85
6194.43
6191
6187.55
6184.09
6180.62
6177.15
6173.67
6170.17
6166.67
6163.15
6159.62
6156.07
6152.5
6148.9
6145.27
6141.62
6137.93
6134.21
6130.45
6126.65
6122.8
6118.91
6114.96
6110.97
6106.91
6102.8
6098.62
6094.37
6090.05
6085.66
6081.18
6076.61
6071.93
6067.14
6062.22
6057.15
6051.93
6046.69
6042.02
6027.73
6007.2
5990.87
5977.69
5966.9
5957.04
5948.35
5942.97
5941.77
5939.78
5907.9
5834.16
5762.87
5700.77
5648.92
5608.59
5582.36
5568.39
5559.64
5550.16
5528.86
5502.52
5500.18
5507.88
5509.85
5509.72
5508.82
5507.74
5506.78
5506.09
5505.74
6389.58
6389.37
6388.95
6388.34
6387.57
6386.65
6385.62
6384.48
6383.27
6381.98
6380.63
6379.22
6377.76
6376.24
6374.67
6373.05
6371.37
6369.63
6367.82
6365.95
6364.01
6361.99
6359.9
6357.72
6355.47
6353.13
6350.72
6348.24
6345.7
6343.11
6340.47
6337.79
6335.08
6332.33
6329.54
6326.72
6323.86
6320.98
6318.06
6315.13
6312.19
6309.25
6306.31
6303.38
6300.47
6297.59
6294.73
6291.91
6289.12
6286.37
6283.65
6280.97
6278.32
6275.69
6273.07
6270.46
6267.86
6265.24
6262.61
6259.95
6257.26
6254.53
6251.75
6248.91
6246.02
6243.07
6240.07
6237.01
6233.9
6230.75
6227.57
6224.35
6221.11
6217.85
6214.56
6211.24
6207.89
6204.52
6201.13
6197.72
6194.29
6190.84
6187.39
6183.93
6180.47
6177
6173.53
6170.05
6166.57
6163.07
6159.57
6156.05
6152.51
6148.95
6145.36
6141.75
6138.11
6134.45
6130.74
6127
6123.23
6119.42
6115.56
6111.67
6107.73
6103.74
6099.72
6095.65
6091.54
6087.38
6083.18
6078.95
6074.67
6070.36
6066.03
6061.7
6057.47
6053.57
6050.67
6044.64
6024.41
6000.7
5979.45
5962.98
5952.6
5946.77
5942.83
5940.87
5938.36
5877.25
5791.84
5717.37
5649.59
5588.64
5538.99
5512.6
5508.2
5508.45
5505.59
5493.99
5486.03
5490.48
5493.13
5494.7
5495.2
5495.06
5494.65
5494.19
5493.83
5493.66
6386.52
6386.35
6386.02
6385.53
6384.91
6384.17
6383.31
6382.37
6381.34
6380.23
6379.06
6377.82
6376.51
6375.15
6373.72
6372.22
6370.66
6369.03
6367.32
6365.54
6363.67
6361.72
6359.68
6357.54
6355.32
6352.99
6350.58
6348.1
6345.54
6342.93
6340.28
6337.59
6334.86
6332.1
6329.3
6326.46
6323.58
6320.66
6317.71
6314.74
6311.76
6308.77
6305.8
6302.85
6299.91
6297.01
6294.13
6291.3
6288.52
6285.77
6283.08
6280.42
6277.81
6275.22
6272.65
6270.1
6267.54
6264.98
6262.4
6259.8
6257.15
6254.46
6251.71
6248.91
6246.03
6243.09
6240.07
6237
6233.88
6230.71
6227.51
6224.28
6221.03
6217.76
6214.46
6211.13
6207.78
6204.4
6200.99
6197.56
6194.12
6190.66
6187.2
6183.74
6180.28
6176.82
6173.36
6169.9
6166.44
6162.97
6159.5
6156.01
6152.51
6148.99
6145.44
6141.88
6138.29
6134.68
6131.03
6127.36
6123.66
6119.93
6116.16
6112.37
6108.55
6104.7
6100.82
6096.93
6093.02
6089.1
6085.18
6081.27
6077.37
6073.52
6069.72
6066.03
6062.5
6059.31
6056.84
6054.41
6031.54
6000.37
5978.12
5958.09
5943.46
5931.38
5919.84
5905.86
5880.36
5812.04
5738.6
5665.17
5591.57
5517.07
5446.15
5420.83
5443.39
5460.36
5469.76
5469.71
5472.47
5478.13
5479.4
5480.56
5481.25
5481.53
5481.54
5481.44
5481.33
5481.29
6383.51
6383.38
6383.13
6382.75
6382.27
6381.68
6381
6380.23
6379.39
6378.46
6377.46
6376.39
6375.25
6374.04
6372.75
6371.39
6369.95
6368.43
6366.83
6365.14
6363.36
6361.48
6359.5
6357.4
6355.2
6352.89
6350.47
6347.97
6345.38
6342.74
6340.07
6337.37
6334.63
6331.86
6329.06
6326.2
6323.29
6320.33
6317.34
6314.31
6311.28
6308.25
6305.24
6302.24
6299.28
6296.35
6293.45
6290.61
6287.82
6285.09
6282.42
6279.8
6277.23
6274.69
6272.18
6269.69
6267.2
6264.71
6262.19
6259.64
6257.05
6254.41
6251.71
6248.93
6246.07
6243.13
6240.11
6237.01
6233.86
6230.66
6227.44
6224.2
6220.93
6217.65
6214.35
6211.02
6207.65
6204.26
6200.84
6197.39
6193.93
6190.46
6186.98
6183.51
6180.05
6176.6
6173.16
6169.72
6166.28
6162.85
6159.41
6155.95
6152.49
6149.01
6145.51
6141.99
6138.46
6134.9
6131.32
6127.71
6124.08
6120.43
6116.76
6113.07
6109.36
6105.63
6101.91
6098.18
6094.46
6090.77
6087.11
6083.5
6079.96
6076.52
6073.19
6070.03
6067.07
6064.22
6060.74
6059.8
6040.43
6004.71
5974.58
5947.81
5923.95
5901.18
5877.2
5848.54
5809.35
5751.97
5685.34
5613.15
5534.44
5441.94
5365.15
5349.71
5384.16
5419.83
5443.38
5454.03
5459.66
5464.68
5465.73
5466.83
5467.67
5468.2
5468.49
5468.63
5468.7
5468.75
6380.52
6380.42
6380.24
6379.97
6379.62
6379.19
6378.67
6378.09
6377.42
6376.68
6375.86
6374.97
6373.99
6372.93
6371.79
6370.57
6369.26
6367.86
6366.37
6364.78
6363.09
6361.29
6359.37
6357.32
6355.15
6352.84
6350.41
6347.86
6345.23
6342.55
6339.84
6337.13
6334.39
6331.62
6328.81
6325.94
6323
6320
6316.94
6313.86
6310.76
6307.68
6304.61
6301.57
6298.57
6295.6
6292.69
6289.82
6287.03
6284.31
6281.67
6279.09
6276.57
6274.1
6271.66
6269.24
6266.83
6264.41
6261.97
6259.49
6256.97
6254.39
6251.73
6248.99
6246.16
6243.22
6240.18
6237.05
6233.85
6230.61
6227.36
6224.09
6220.82
6217.54
6214.23
6210.9
6207.52
6204.11
6200.67
6197.2
6193.72
6190.22
6186.72
6183.24
6179.78
6176.34
6172.91
6169.5
6166.1
6162.7
6159.29
6155.88
6152.45
6149.02
6145.56
6142.1
6138.61
6135.11
6131.59
6128.05
6124.49
6120.92
6117.34
6113.74
6110.14
6106.54
6102.95
6099.37
6095.84
6092.35
6088.93
6085.59
6082.37
6079.28
6076.37
6073.7
6071.4
6069.74
6066.17
6064.12
6042.89
6003.48
5967.67
5934.63
5903.33
5872.21
5839.23
5801.75
5756.55
5701.13
5637.63
5567.66
5491.09
5405.56
5351.31
5344.37
5356.88
5391.44
5423.27
5440.01
5443.38
5450.46
5451.96
5453.31
5454.34
5455.06
5455.54
5455.84
5456.03
5456.15
6377.51
6377.45
6377.34
6377.18
6376.96
6376.68
6376.34
6375.93
6375.45
6374.9
6374.26
6373.54
6372.73
6371.84
6370.85
6369.77
6368.59
6367.32
6365.95
6364.47
6362.87
6361.16
6359.31
6357.32
6355.17
6352.87
6350.4
6347.79
6345.08
6342.33
6339.59
6336.86
6334.13
6331.39
6328.59
6325.7
6322.73
6319.67
6316.54
6313.37
6310.19
6307.03
6303.91
6300.83
6297.78
6294.77
6291.82
6288.93
6286.13
6283.42
6280.81
6278.28
6275.83
6273.43
6271.08
6268.75
6266.43
6264.1
6261.74
6259.35
6256.91
6254.4
6251.81
6249.12
6246.31
6243.37
6240.3
6237.11
6233.84
6230.54
6227.25
6223.96
6220.69
6217.41
6214.12
6210.78
6207.4
6203.97
6200.5
6197
6193.47
6189.94
6186.42
6182.92
6179.45
6176.02
6172.62
6169.24
6165.87
6162.51
6159.15
6155.77
6152.39
6149
6145.6
6142.18
6138.75
6135.3
6131.84
6128.37
6124.88
6121.39
6117.89
6114.38
6110.88
6107.39
6103.92
6100.49
6097.11
6093.81
6090.6
6087.49
6084.53
6081.74
6079.16
6076.88
6075.07
6073.94
6071.72
6067.99
6042.92
5998.63
5957.99
5919.7
5882.53
5845.09
5805.77
5762.68
5713.95
5658.39
5596.38
5528.77
5456.69
5383.12
5342.76
5338.79
5337.24
5365.79
5406.39
5427.62
5428.91
5435.33
5438.28
5440.06
5441.27
5442.11
5442.7
5443.09
5443.36
5443.52
6374.45
6374.43
6374.4
6374.34
6374.26
6374.14
6373.98
6373.76
6373.48
6373.12
6372.67
6372.13
6371.5
6370.77
6369.93
6369
6367.97
6366.82
6365.57
6364.21
6362.72
6361.1
6359.34
6357.41
6355.31
6353.01
6350.5
6347.77
6344.92
6342.06
6339.27
6336.54
6333.85
6331.16
6328.4
6325.52
6322.5
6319.36
6316.13
6312.84
6309.55
6306.31
6303.14
6300.01
6296.91
6293.85
6290.84
6287.91
6285.09
6282.39
6279.82
6277.36
6274.99
6272.69
6270.44
6268.21
6266
6263.77
6261.52
6259.22
6256.88
6254.46
6251.95
6249.33
6246.56
6243.63
6240.51
6237.22
6233.84
6230.44
6227.08
6223.78
6220.53
6217.28
6214
6210.67
6207.28
6203.83
6200.33
6196.78
6193.21
6189.62
6186.05
6182.53
6179.06
6175.64
6172.27
6168.93
6165.61
6162.29
6158.97
6155.65
6152.31
6148.96
6145.61
6142.24
6138.86
6135.47
6132.07
6128.67
6125.25
6121.83
6118.4
6114.98
6111.57
6108.18
6104.82
6101.51
6098.27
6095.11
6092.07
6089.17
6086.41
6083.85
6081.53
6079.55
6078.07
6077.2
6075.82
6070.23
6038.27
5990.14
5945.96
5903.64
5861.99
5819.88
5776.07
5729.24
5678.19
5622.09
5560.75
5494.36
5423.79
5358.71
5333.34
5333.11
5332.19
5353.45
5393.22
5415.12
5421.14
5423.6
5425.73
5427.33
5428.51
5429.37
5429.98
5430.42
5430.72
5430.9
6371.32
6371.34
6371.38
6371.44
6371.5
6371.56
6371.59
6371.58
6371.5
6371.35
6371.1
6370.75
6370.3
6369.73
6369.06
6368.28
6367.38
6366.38
6365.26
6364.02
6362.66
6361.15
6359.48
6357.64
6355.59
6353.31
6350.76
6347.81
6344.74
6341.66
6338.83
6336.14
6333.53
6330.95
6328.28
6325.43
6322.35
6319.1
6315.73
6312.28
6308.83
6305.49
6302.27
6299.11
6295.97
6292.84
6289.75
6286.75
6283.89
6281.2
6278.68
6276.31
6274.04
6271.86
6269.73
6267.63
6265.54
6263.43
6261.29
6259.11
6256.88
6254.57
6252.17
6249.65
6246.95
6244.03
6240.84
6237.38
6233.81
6230.25
6226.83
6223.53
6220.32
6217.13
6213.9
6210.59
6207.18
6203.7
6200.16
6196.56
6192.91
6189.25
6185.61
6182.04
6178.57
6175.18
6171.85
6168.57
6165.31
6162.04
6158.78
6155.5
6152.2
6148.9
6145.59
6142.27
6138.95
6135.62
6132.28
6128.93
6125.58
6122.23
6118.88
6115.53
6112.2
6108.89
6105.62
6102.41
6099.27
6096.24
6093.33
6090.57
6087.98
6085.59
6083.48
6081.74
6080.45
6079.71
6078.89
6063.05
6022.99
5977.69
5932.08
5886.93
5841.91
5796.36
5749.37
5700.04
5647.48
5591.03
5530.16
5464.11
5390.68
5337.68
5328.72
5328.29
5328.89
5343.22
5379.89
5403.95
5410.88
5412.16
5413.65
5414.96
5416.01
5416.8
5417.39
5417.82
5418.13
5418.32
6368.08
6368.14
6368.27
6368.45
6368.67
6368.92
6369.17
6369.38
6369.54
6369.6
6369.56
6369.41
6369.14
6368.75
6368.23
6367.6
6366.86
6365.99
6365.01
6363.91
6362.68
6361.3
6359.75
6358.01
6356.07
6353.82
6351.35
6347.94
6344.53
6340.97
6338.23
6335.6
6333.16
6330.77
6328.29
6325.53
6322.33
6318.93
6315.37
6311.68
6307.94
6304.52
6301.3
6298.15
6294.97
6291.75
6288.52
6285.39
6282.48
6279.81
6277.37
6275.11
6272.98
6270.94
6268.96
6267.01
6265.05
6263.08
6261.08
6259.03
6256.92
6254.75
6252.48
6250.09
6247.52
6244.66
6241.4
6237.63
6233.74
6229.9
6226.42
6223.15
6220.04
6216.99
6213.86
6210.55
6207.13
6203.61
6200.01
6196.34
6192.6
6188.82
6185.05
6181.44
6177.96
6174.61
6171.36
6168.15
6164.96
6161.76
6158.55
6155.32
6152.07
6148.81
6145.55
6142.28
6139.01
6135.74
6132.46
6129.17
6125.88
6122.59
6119.3
6116.03
6112.76
6109.52
6106.31
6103.17
6100.11
6097.16
6094.35
6091.69
6089.22
6086.98
6085.05
6083.48
6082.3
6081.54
6080.84
6058.6
6012.97
5965.55
5917.74
5870.06
5822.39
5774.25
5725.04
5674.06
5620.68
5564.38
5504.75
5441.25
5372.75
5330.99
5325.86
5325.35
5326.48
5340.67
5372.32
5392.59
5399.42
5400.47
5401.69
5402.8
5403.7
5404.39
5404.9
5405.28
5405.57
5405.75
6364.69
6364.79
6365.01
6365.33
6365.73
6366.2
6366.7
6367.18
6367.58
6367.89
6368.08
6368.13
6368.04
6367.82
6367.47
6366.99
6366.39
6365.67
6364.84
6363.88
6362.79
6361.56
6360.15
6358.53
6356.78
6354.51
6352.83
6349.03
6343.45
6339.41
6337.45
6334.82
6332.68
6330.65
6328.55
6326.04
6322.47
6318.86
6315.11
6311.09
6306.67
6303.29
6300.23
6297.16
6293.97
6290.62
6287.17
6283.79
6280.78
6278.15
6275.83
6273.73
6271.78
6269.93
6268.13
6266.35
6264.55
6262.73
6260.87
6258.95
6256.99
6254.97
6252.88
6250.69
6248.33
6245.67
6242.44
6237.95
6233.59
6229.14
6225.76
6222.58
6219.68
6216.88
6213.94
6210.61
6207.12
6203.55
6199.9
6196.15
6192.3
6188.32
6184.31
6180.64
6177.18
6173.92
6170.77
6167.68
6164.58
6161.46
6158.31
6155.12
6151.91
6148.68
6145.47
6142.25
6139.04
6135.82
6132.6
6129.37
6126.14
6122.91
6119.69
6116.47
6113.26
6110.06
6106.9
6103.78
6100.76
6097.85
6095.1
6092.51
6090.14
6088.04
6086.27
6084.84
6083.73
6082.66
6081.97
6055.87
6004.72
5953.79
5903.27
5853.19
5803.32
5753.24
5702.46
5650.47
5596.78
5541.07
5483.19
5423.4
5362.4
5328.41
5324.78
5324.93
5325.95
5329.93
5356.26
5379.42
5387.17
5388.54
5389.79
5390.79
5391.54
5392.09
5392.48
5392.78
5393.01
5393.17
6361.1
6361.26
6361.57
6362.04
6362.65
6363.39
6364.18
6364.97
6365.67
6366.24
6366.66
6366.92
6367.02
6366.97
6366.77
6366.44
6365.99
6365.42
6364.73
6363.93
6363
6361.95
6360.71
6359.11
6357.95
6356.42
6353.63
6348.04
6342.42
6338.71
6335.86
6333.52
6332.03
6330.59
6329.15
6327.57
6324.9
6320.13
6313.98
6308.46
6304.31
6301.68
6299.12
6296.27
6293.08
6289.54
6285.7
6281.76
6278.65
6276.15
6274.03
6272.17
6270.45
6268.83
6267.24
6265.66
6264.05
6262.39
6260.67
6258.9
6257.08
6255.23
6253.35
6251.43
6249.41
6247.2
6244.7
6239.68
6232.55
6227.26
6224.88
6221.69
6219.18
6216.88
6214.38
6210.79
6207.16
6203.53
6199.84
6196.03
6192.06
6187.82
6183.18
6179.61
6176.16
6173.05
6170.1
6167.16
6164.19
6161.15
6158.05
6154.9
6151.71
6148.51
6145.34
6142.18
6139.03
6135.88
6132.71
6129.54
6126.36
6123.19
6120.02
6116.86
6113.69
6110.52
6107.36
6104.24
6101.2
6098.29
6095.55
6093.04
6090.77
6088.79
6087.15
6085.9
6085.11
6083.88
6082.46
6052.7
5996.26
5941.62
5888.37
5836.12
5784.45
5732.92
5681.11
5628.57
5574.93
5519.92
5463.56
5406.74
5353.34
5327.14
5324.5
5324.56
5325.22
5327.81
5349.38
5368.6
5374.18
5376.69
5378.1
5378.98
5379.54
5379.88
5380.1
5380.27
5380.41
5380.54
6357.28
6357.48
6357.89
6358.52
6359.38
6360.43
6361.61
6362.77
6363.81
6364.68
6365.34
6365.81
6366.09
6366.2
6366.16
6365.97
6365.66
6365.24
6364.7
6364.04
6363.28
6362.47
6361.59
6360.48
6358.66
6353.78
6348.57
6343.18
6339.25
6336.28
6334.34
6332.59
6331.3
6330.46
6329.86
6328.94
6324.88
6318.35
6311.74
6306.13
6302.4
6299.97
6298.25
6295.67
6292.49
6288.72
6284.29
6278.88
6275.87
6273.71
6271.95
6270.41
6269
6267.65
6266.32
6264.96
6263.55
6262.06
6260.49
6258.85
6257.17
6255.48
6253.82
6252.22
6250.66
6248.96
6247.24
6239.73
6230.77
6225.73
6222.94
6220.09
6218.43
6217.02
6215.87
6213.62
6207.92
6202.94
6200.33
6195.96
6190.18
6185.02
6180.93
6178.4
6174.73
6172
6169.36
6166.64
6163.81
6160.85
6157.8
6154.66
6151.47
6148.27
6145.14
6142.06
6138.98
6135.89
6132.78
6129.66
6126.54
6123.41
6120.3
6117.19
6114.07
6110.91
6107.7
6104.51
6101.4
6098.46
6095.77
6093.33
6091.14
6089.23
6087.65
6086.49
6085.82
6084.87
6082.4
6047.64
5986.01
5928.05
5872.48
5818.46
5765.43
5712.9
5660.48
5607.77
5554.43
5500.11
5444.4
5386.68
5340.29
5324.98
5324.14
5324.18
5324.21
5326.06
5345.25
5362.15
5364.24
5365.86
5366.88
5367.44
5367.69
5367.74
5367.72
5367.69
5367.72
5367.81
6353.19
6353.43
6353.92
6354.71
6355.83
6357.29
6358.97
6360.63
6362.08
6363.25
6364.16
6364.83
6365.28
6365.53
6365.63
6365.58
6365.4
6365.12
6364.73
6364.22
6363.54
6363.01
6362.16
6357.13
6351.55
6344.84
6339.83
6335.81
6333.01
6331.39
6331.14
6331.66
6330.69
6330.07
6329.95
6329.14
6323.77
6315.21
6307.84
6301.93
6297.96
6296.74
6296.81
6295.09
6291.32
6285.44
6278.7
6273.53
6272.19
6270.84
6269.61
6268.49
6267.45
6266.42
6265.38
6264.29
6263.09
6261.78
6260.34
6258.81
6257.24
6255.68
6254.19
6252.92
6252.02
6251.03
6245.79
6234.91
6225.82
6220.15
6217.48
6216.77
6217.37
6216.87
6216.26
6213.65
6206.32
6198.66
6194.48
6191.17
6186.73
6182.81
6178.76
6175.38
6172.33
6170.79
6168.66
6166.19
6163.49
6160.61
6157.59
6154.44
6151.19
6147.91
6144.85
6141.88
6138.89
6135.87
6132.82
6129.75
6126.66
6123.58
6120.51
6117.46
6114.39
6111.25
6107.92
6104.63
6101.44
6098.4
6095.76
6093.4
6091.24
6089.32
6087.74
6086.59
6085.94
6085.05
6081.33
6037.82
5972.09
5912.09
5855.03
5799.83
5745.89
5692.78
5640.12
5587.61
5534.93
5481.68
5427.24
5370.35
5331.94
5324.08
5323.71
5323.82
5323.98
5325.04
5339.17
5353.71
5354.7
5355.59
5356.08
5356.16
5355.96
5355.62
5355.27
5354.99
5354.86
5354.88
6348.78
6349.03
6349.58
6350.49
6351.88
6353.84
6356.29
6358.63
6360.54
6362.04
6363.17
6364.01
6364.6
6364.98
6365.19
6365.26
6365.21
6365.05
6364.82
6364.52
6364.02
6362.36
6355.65
6346.37
6339.71
6334.21
6330.09
6327.22
6325.58
6325.14
6326.04
6328.55
6329.67
6329.71
6329.03
6327.88
6321.08
6310.86
6302.5
6295.2
6291.11
6292.96
6293.75
6290.49
6282.57
6274.6
6270.99
6269.04
6268.48
6267.8
6267.12
6266.47
6265.83
6265.18
6264.47
6263.67
6262.72
6261.59
6260.25
6258.78
6257.27
6255.75
6254.33
6253.2
6252.49
6251.92
6243.45
6228.92
6217.06
6208.55
6203.66
6203.64
6208.47
6213.84
6213.86
6207.5
6197.45
6189.21
6185.85
6183.96
6180.88
6178.35
6175.3
6172.76
6171.29
6170.12
6168.24
6165.92
6163.3
6160.46
6157.44
6154.26
6150.89
6147.27
6144.43
6141.65
6138.78
6135.83
6132.82
6129.77
6126.7
6123.65
6120.62
6117.64
6114.72
6111.76
6108.11
6104.69
6101.34
6097.94
6095.49
6093.25
6091.09
6089.06
6087.42
6086.17
6085.48
6084.65
6065.87
6012.3
5952.44
5893.19
5835.72
5779.94
5725.54
5672.19
5619.63
5567.62
5515.98
5464.44
5412.55
5359.47
5327.4
5322.9
5323.14
5323.43
5323.82
5325.7
5333.55
5344.27
5345.2
5345.68
5345.61
5345.09
5344.31
5343.45
5342.66
5342.07
5341.72
5341.63
6344.05
6344.28
6344.8
6345.72
6347.28
6349.83
6353.66
6356.99
6359.38
6361.12
6362.42
6363.39
6364.08
6364.55
6364.85
6365.01
6365.06
6365.02
6364.92
6364.19
6358.32
6351.21
6341.39
6333
6326.73
6322.18
6319.12
6317.4
6316.95
6317.54
6319.34
6323.09
6327.28
6325.59
6325.53
6325.38
6315.97
6304.64
6296.08
6289.23
6286.66
6289.86
6290.79
6283.26
6271.95
6264.55
6264.99
6264.92
6264.85
6264.73
6264.57
6264.39
6264.19
6263.94
6263.62
6263.16
6262.49
6261.59
6260.24
6258.77
6257.25
6255.7
6254.13
6253.03
6252.24
6251.3
6239.57
6220.28
6204.93
6193.35
6185.02
6181.91
6184.83
6187.09
6196.12
6195.35
6188.29
6184.1
6182.28
6180.13
6177.8
6176.36
6174.43
6172.6
6171.43
6169.59
6167.64
6165.49
6162.69
6159.75
6156.95
6153.65
6149.41
6145.77
6143.89
6141.43
6138.68
6135.79
6132.79
6129.74
6126.67
6123.64
6120.65
6117.77
6115.11
6112.98
6107.75
6104.71
6100.18
6096.53
6095.01
6093.03
6090.83
6088.41
6086.69
6085.21
6084.38
6083.12
6053.41
5993.09
5932.16
5872.51
5814.72
5758.68
5704.13
5650.82
5598.57
5547.28
5496.93
5447.56
5399.04
5350.86
5324.05
5321.7
5322.3
5322.93
5323.87
5325.65
5328.72
5334.28
5336.09
5336.28
5335.54
5334.23
5332.67
5331.12
5329.79
5328.8
5328.19
5327.96
6339.01
6339.17
6339.54
6340.25
6341.6
6344.45
6351.45
6356.22
6358.79
6360.59
6361.96
6362.99
6363.71
6364.25
6364.61
6364.83
6364.97
6364.99
6359.74
6353.39
6343.57
6334.82
6325.72
6317.49
6312.04
6308.67
6306.79
6306.29
6307.3
6308.74
6310.68
6313.32
6316.85
6315.22
6315.44
6314.24
6304.66
6295.66
6287.96
6281.49
6278.83
6280.6
6279.85
6273.21
6264.63
6259.59
6259.39
6260.83
6261.25
6261.65
6262.01
6262.3
6262.55
6262.76
6262.88
6262.83
6262.45
6261.99
6260.85
6258.72
6256.84
6255.01
6253.42
6252.51
6251.2
6248.34
6232.6
6207.75
6189.03
6174.92
6164.14
6159.81
6159.88
6154.92
6171.78
6188.7
6184.43
6182.41
6182.26
6179.94
6177.41
6175.66
6174.31
6173.2
6164.55
6157.24
6153.15
6149.89
6146.73
6143.73
6140.85
6137.73
6134.38