/*--------------------------------*- C++ -*----------------------------------*\
| =========                 |                                                 |
| \\      /  F ield         | OpenFOAM: The Open Source CFD Toolbox           |
|  \\    /   O peration     | Version:  2.1.0                                 |
|   \\  /    A nd           | Web:      www.OpenFOAM.org                      |
|    \\/     M anipulation  |                                                 |
\*---------------------------------------------------------------------------*/
FoamFile
{
    version     2.0;
    format      ascii;
    class       volScalarField;
    location    "36135";
    object      so;
}
// * * * * * * * * * * * * * * * * * * * * * * * * * * * * * * * * * * * * * //

dimensions      [0 0 0 0 0 0 0];

internalField   nonuniform List<scalar> 
15000
(
0.2
0.2
0.20001
0.200281
0.202203
0.20774
0.217044
0.228643
0.24109
0.253542
0.2656
0.277105
0.288004
0.298296
0.308
0.317144
0.325761
0.333882
0.34154
0.348764
0.355585
0.362031
0.368131
0.373911
0.379397
0.384614
0.389582
0.394324
0.39886
0.40321
0.407391
0.411421
0.415314
0.419082
0.422735
0.426284
0.429737
0.433102
0.436387
0.439599
0.442744
0.445829
0.448858
0.451837
0.454769
0.457659
0.460509
0.463321
0.466097
0.46884
0.471549
0.474227
0.476872
0.479484
0.482063
0.484608
0.487118
0.489591
0.492028
0.494427
0.496788
0.49911
0.501394
0.503639
0.505845
0.508014
0.510146
0.512242
0.514304
0.516334
0.518332
0.520301
0.522241
0.524154
0.526042
0.527906
0.529748
0.531569
0.53337
0.535152
0.536916
0.538664
0.540396
0.542113
0.543816
0.545505
0.547181
0.548843
0.550492
0.552128
0.55375
0.555359
0.556954
0.558535
0.560101
0.561651
0.563185
0.564702
0.5662
0.567678
0.569136
0.57057
0.571981
0.573367
0.574726
0.576056
0.577357
0.578626
0.579864
0.581069
0.58224
0.583379
0.584485
0.585561
0.586607
0.587624
0.588614
0.58958
0.590522
0.591445
0.592358
0.593275
0.594216
0.595209
0.59629
0.597494
0.598835
0.600269
0.601645
0.602775
0.603622
0.604222
0.604638
0.605056
0.60548
0.605917
0.60637
0.606844
0.607342
0.60787
0.608437
0.609059
0.609755
0.610559
0.611514
0.612695
0.614232
0.616398
0.619995
0.631646
0.2
0.200002
0.200049
0.200705
0.203693
0.210451
0.220458
0.232217
0.244532
0.256742
0.268538
0.279796
0.290476
0.300579
0.310121
0.319127
0.327627
0.335647
0.343218
0.350366
0.35712
0.363507
0.369556
0.375291
0.380736
0.385915
0.390848
0.395557
0.400062
0.404384
0.408541
0.412548
0.41642
0.420167
0.423799
0.427328
0.43076
0.434105
0.43737
0.440561
0.443687
0.446752
0.449763
0.452723
0.455638
0.45851
0.461342
0.464138
0.466899
0.469627
0.472324
0.47499
0.477624
0.480227
0.482798
0.485336
0.48784
0.490308
0.492741
0.495137
0.497495
0.499816
0.502098
0.504341
0.506547
0.508715
0.510846
0.512942
0.515004
0.517033
0.519031
0.520999
0.522939
0.524852
0.526739
0.528604
0.530445
0.532266
0.534067
0.53585
0.537615
0.539364
0.541098
0.542817
0.544523
0.546215
0.547895
0.549562
0.551216
0.552859
0.554488
0.556106
0.557711
0.559304
0.560883
0.562449
0.564001
0.565538
0.567059
0.568564
0.570051
0.571521
0.572972
0.574403
0.575814
0.577204
0.578573
0.579922
0.581252
0.582563
0.583859
0.585142
0.586416
0.587687
0.588959
0.590238
0.591531
0.592839
0.594167
0.595516
0.596903
0.598363
0.599957
0.601772
0.603928
0.606557
0.609743
0.613382
0.616909
0.619472
0.621137
0.62211
0.622595
0.622884
0.622988
0.622943
0.62283
0.62268
0.622468
0.622153
0.621714
0.621176
0.620595
0.620047
0.619624
0.61943
0.619612
0.620447
0.62273
0.633141
0.200009
0.200049
0.200388
0.202117
0.206849
0.215005
0.225569
0.237278
0.249269
0.26108
0.272489
0.2834
0.29378
0.303627
0.312952
0.321773
0.330114
0.337998
0.34545
0.352495
0.359159
0.365467
0.371443
0.377112
0.382498
0.38762
0.392502
0.397164
0.401626
0.405907
0.410026
0.413998
0.417834
0.421546
0.425145
0.428639
0.432038
0.43535
0.438583
0.441744
0.444838
0.447873
0.450854
0.453785
0.456672
0.459517
0.462324
0.465096
0.467836
0.470545
0.473224
0.475874
0.478495
0.481086
0.483647
0.486176
0.488672
0.491135
0.493563
0.495955
0.498311
0.500629
0.50291
0.505151
0.507355
0.509522
0.511652
0.513746
0.515806
0.517833
0.519828
0.521794
0.523732
0.525643
0.527529
0.529391
0.531231
0.53305
0.53485
0.536631
0.538395
0.540144
0.541878
0.543598
0.545305
0.546999
0.548682
0.550353
0.552012
0.55366
0.555297
0.556924
0.55854
0.560145
0.561739
0.563323
0.564894
0.566454
0.568002
0.569537
0.571059
0.572569
0.574066
0.57555
0.577022
0.578483
0.579935
0.581381
0.582822
0.584265
0.585716
0.587184
0.588679
0.590215
0.591811
0.593488
0.595268
0.597166
0.599175
0.601276
0.603474
0.605828
0.608458
0.611552
0.615366
0.620207
0.626344
0.633724
0.64087
0.644992
0.647342
0.648587
0.649114
0.649071
0.648447
0.647319
0.646041
0.644722
0.64326
0.641495
0.639353
0.636907
0.634297
0.631697
0.62928
0.627202
0.625631
0.624844
0.625627
0.634736
0.200266
0.200677
0.202075
0.205685
0.212282
0.221449
0.232172
0.243565
0.255065
0.266361
0.277295
0.28779
0.297813
0.307355
0.316421
0.325022
0.333173
0.340894
0.348204
0.355124
0.361678
0.367886
0.373773
0.379361
0.38467
0.389722
0.394539
0.399139
0.403544
0.407773
0.411841
0.415763
0.419552
0.423217
0.426769
0.430218
0.433572
0.43684
0.440029
0.443147
0.446199
0.449192
0.452132
0.455024
0.457873
0.460683
0.463457
0.466199
0.468911
0.471594
0.474251
0.476881
0.479485
0.482061
0.484609
0.487128
0.489616
0.492072
0.494496
0.496884
0.499237
0.501553
0.503831
0.506071
0.508273
0.510437
0.512564
0.514655
0.516712
0.518735
0.520727
0.522689
0.524622
0.52653
0.528412
0.53027
0.532107
0.533923
0.535719
0.537498
0.539259
0.541006
0.542738
0.544458
0.546165
0.54786
0.549544
0.551218
0.552882
0.554537
0.556181
0.557817
0.559444
0.561063
0.562673
0.564275
0.565869
0.567454
0.569031
0.5706
0.572162
0.573717
0.575267
0.576812
0.578355
0.579899
0.581447
0.583006
0.584581
0.586183
0.587825
0.589526
0.591309
0.59321
0.595278
0.59758
0.600184
0.603125
0.606349
0.609706
0.613135
0.616721
0.620675
0.625317
0.631088
0.638554
0.648338
0.660877
0.672825
0.676901
0.679094
0.680295
0.680854
0.68046
0.678905
0.676092
0.673253
0.670628
0.667855
0.664481
0.660273
0.655434
0.650242
0.645028
0.640107
0.635725
0.632082
0.629456
0.628613
0.636416
0.202062
0.203511
0.206636
0.212115
0.219926
0.229438
0.23991
0.250775
0.261672
0.272387
0.282798
0.292838
0.30247
0.311678
0.320459
0.328815
0.336756
0.344294
0.351444
0.358224
0.364652
0.370748
0.376531
0.382023
0.387243
0.392212
0.396951
0.401478
0.405815
0.409979
0.413984
0.417845
0.421574
0.42518
0.428674
0.432066
0.435364
0.438576
0.44171
0.444772
0.44777
0.450711
0.453599
0.456442
0.459243
0.462008
0.464741
0.467444
0.470122
0.472774
0.475403
0.478009
0.480592
0.483151
0.485685
0.488192
0.490672
0.493121
0.495539
0.497924
0.500274
0.502588
0.504864
0.507102
0.509301
0.511462
0.513586
0.515673
0.517725
0.519743
0.521729
0.523686
0.525614
0.527516
0.529392
0.531246
0.533077
0.534888
0.536679
0.538453
0.54021
0.541953
0.543683
0.545399
0.547105
0.5488
0.550485
0.552162
0.55383
0.55549
0.557142
0.558787
0.560426
0.562059
0.563687
0.56531
0.566927
0.56854
0.57015
0.571757
0.573363
0.574969
0.576577
0.57819
0.579813
0.581451
0.58311
0.584799
0.58653
0.588322
0.590196
0.592189
0.594349
0.596756
0.599527
0.602826
0.606828
0.611602
0.616915
0.622143
0.627114
0.632013
0.637211
0.643201
0.65062
0.660306
0.673356
0.691448
0.706217
0.707094
0.708942
0.709935
0.710663
0.710452
0.708631
0.703793
0.699557
0.696384
0.693171
0.68887
0.682813
0.675536
0.667549
0.659358
0.651559
0.644574
0.638662
0.634087
0.631588
0.63816
0.207242
0.209907
0.214451
0.220973
0.229149
0.238456
0.248402
0.258622
0.268868
0.27898
0.288855
0.298427
0.307657
0.316518
0.325001
0.3331
0.340819
0.348163
0.355143
0.361771
0.368063
0.374036
0.379706
0.385092
0.390213
0.395089
0.399738
0.404183
0.40844
0.412527
0.416459
0.420248
0.423905
0.427441
0.430866
0.43419
0.43742
0.440565
0.443631
0.446627
0.449559
0.452434
0.45526
0.458042
0.460785
0.463496
0.466178
0.468836
0.471471
0.474086
0.476682
0.479259
0.481818
0.484357
0.486875
0.48937
0.49184
0.494283
0.496696
0.499077
0.501425
0.503737
0.506012
0.508248
0.510445
0.512602
0.514722
0.516804
0.51885
0.520861
0.522841
0.52479
0.526711
0.528606
0.530475
0.532321
0.534146
0.53595
0.537734
0.539501
0.541253
0.54299
0.544714
0.546427
0.54813
0.549823
0.551509
0.553187
0.554859
0.556525
0.558185
0.55984
0.561491
0.563139
0.564785
0.566429
0.568072
0.569715
0.57136
0.573008
0.574662
0.576323
0.577996
0.579686
0.581398
0.58314
0.584922
0.58676
0.588672
0.590686
0.592841
0.595198
0.597855
0.600966
0.604779
0.609644
0.615937
0.623789
0.632528
0.640076
0.646445
0.652222
0.658059
0.664624
0.672683
0.683218
0.697617
0.719174
0.725578
0.748809
0.772102
0.788654
0.788551
0.774943
0.754226
0.713529
0.711323
0.710547
0.709532
0.707047
0.701323
0.693305
0.683811
0.673094
0.662533
0.653007
0.644903
0.638473
0.634425
0.639949
0.215972
0.219377
0.224535
0.23127
0.239231
0.24803
0.25733
0.266872
0.27647
0.285991
0.295342
0.304456
0.313287
0.321805
0.329989
0.33783
0.345323
0.352469
0.359275
0.365747
0.371899
0.377742
0.383293
0.388566
0.393581
0.398355
0.402908
0.40726
0.411428
0.415428
0.419275
0.42298
0.426555
0.430011
0.433357
0.436601
0.439752
0.442817
0.445803
0.44872
0.451573
0.454371
0.457122
0.459831
0.462506
0.465152
0.467774
0.470376
0.472961
0.475531
0.478088
0.480632
0.483163
0.48568
0.48818
0.490662
0.493122
0.495559
0.497968
0.500348
0.502695
0.505006
0.50728
0.509515
0.51171
0.513864
0.515979
0.518055
0.520094
0.522097
0.524069
0.526009
0.527921
0.529807
0.531667
0.533505
0.53532
0.537115
0.538891
0.540649
0.542393
0.544122
0.54584
0.547547
0.549245
0.550936
0.55262
0.554299
0.555974
0.557645
0.559313
0.560977
0.562641
0.564304
0.565969
0.567636
0.569307
0.570982
0.572664
0.574357
0.576062
0.577783
0.579527
0.581299
0.583109
0.584966
0.586887
0.588893
0.591011
0.593285
0.595778
0.598593
0.6019
0.605985
0.611301
0.618497
0.628283
0.640931
0.655096
0.66458
0.671399
0.677052
0.682516
0.688538
0.695848
0.705322
0.71826
0.739594
0.775367
0.799985
0.8
0.8
0.799931
0.796665
0.795124
0.788777
0.78335
0.77923
0.766034
0.74672
0.708492
0.703136
0.695679
0.683881
0.671416
0.660023
0.650239
0.642324
0.636998
0.641767
0.22687
0.230492
0.235667
0.242148
0.249629
0.257814
0.266452
0.275342
0.284331
0.293299
0.302158
0.310839
0.319291
0.327478
0.335374
0.342964
0.350237
0.357189
0.363822
0.37014
0.376151
0.381865
0.387294
0.392453
0.397357
0.402024
0.406475
0.410726
0.414795
0.418698
0.422449
0.42606
0.429543
0.432908
0.436163
0.439317
0.442377
0.44535
0.448244
0.451068
0.453829
0.456537
0.459199
0.461823
0.464417
0.466986
0.469536
0.472072
0.474597
0.477115
0.479626
0.482131
0.484631
0.487122
0.489603
0.492071
0.494523
0.496954
0.499361
0.50174
0.504088
0.506401
0.508676
0.510911
0.513104
0.515256
0.517366
0.519435
0.521466
0.52346
0.525421
0.527351
0.529253
0.531128
0.532978
0.534804
0.536609
0.538393
0.540158
0.541906
0.543638
0.545358
0.547067
0.548766
0.550458
0.552144
0.553826
0.555505
0.557182
0.558858
0.560534
0.562207
0.563883
0.565562
0.567247
0.568938
0.570637
0.572346
0.574069
0.575808
0.577568
0.579354
0.581174
0.583036
0.584951
0.586935
0.58901
0.591203
0.593557
0.596135
0.599037
0.602427
0.606584
0.611977
0.619353
0.629751
0.644303
0.663602
0.686043
0.695109
0.700678
0.705034
0.709183
0.713729
0.719193
0.726251
0.736124
0.756029
0.791173
0.799582
0.799995
0.8
0.8
0.79998
0.79996
0.79987
0.799778
0.799721
0.795297
0.792301
0.753071
0.726314
0.698358
0.687727
0.67616
0.664686
0.654242
0.645441
0.639226
0.643611
0.238544
0.242089
0.247008
0.253062
0.259998
0.267578
0.275602
0.283901
0.29234
0.300809
0.309221
0.317506
0.32561
0.33349
0.341118
0.348472
0.355537
0.362307
0.368776
0.374947
0.380824
0.386413
0.391724
0.396769
0.401563
0.406123
0.410465
0.414608
0.418569
0.422363
0.426007
0.429514
0.432894
0.436158
0.439313
0.442365
0.445322
0.448191
0.450979
0.453696
0.456351
0.458953
0.461511
0.464035
0.466533
0.469011
0.471476
0.473934
0.476388
0.478843
0.481301
0.483761
0.486224
0.488687
0.491148
0.493602
0.496044
0.498472
0.500879
0.503261
0.505612
0.50793
0.510209
0.512446
0.51464
0.51679
0.518895
0.520957
0.522978
0.524962
0.526911
0.528829
0.530718
0.532581
0.534418
0.536232
0.538024
0.539795
0.541547
0.543282
0.545002
0.546709
0.548406
0.550095
0.551779
0.553458
0.555136
0.556814
0.558492
0.560172
0.561854
0.563539
0.565228
0.566923
0.568628
0.570343
0.572072
0.573817
0.575581
0.57737
0.579188
0.581044
0.582945
0.584903
0.586934
0.589058
0.591302
0.593708
0.596334
0.599271
0.60267
0.606779
0.612028
0.619122
0.629143
0.643507
0.663629
0.69032
0.723006
0.727784
0.731191
0.733763
0.736244
0.73899
0.742242
0.746368
0.752428
0.771285
0.797187
0.799914
0.799999
0.8
0.8
0.8
0.8
0.799999
0.799998
0.799998
0.799938
0.799894
0.798602
0.743489
0.699303
0.689421
0.678676
0.6676
0.657065
0.647849
0.641106
0.645499
0.250161
0.253517
0.258105
0.263716
0.27014
0.277181
0.284668
0.292454
0.300417
0.308452
0.316472
0.324407
0.3322
0.339807
0.347193
0.354334
0.361212
0.367815
0.374137
0.380175
0.38593
0.391406
0.396609
0.40155
0.406239
0.410692
0.414923
0.41895
0.422792
0.426466
0.429991
0.433381
0.436649
0.439801
0.442845
0.445785
0.448628
0.451379
0.454046
0.45664
0.459171
0.46165
0.464087
0.466493
0.468876
0.471246
0.47361
0.475974
0.478345
0.480726
0.48312
0.485528
0.487949
0.49038
0.492818
0.495257
0.497693
0.500119
0.502529
0.504917
0.507278
0.509604
0.511891
0.514136
0.516333
0.518483
0.520584
0.522638
0.524649
0.52662
0.528555
0.530458
0.532333
0.534181
0.536004
0.537804
0.539582
0.541338
0.543074
0.544793
0.546497
0.548189
0.549871
0.551547
0.553219
0.554891
0.556562
0.558237
0.559915
0.561598
0.563286
0.564982
0.566682
0.568394
0.570119
0.57186
0.573621
0.575404
0.577214
0.579056
0.580938
0.582867
0.584857
0.586921
0.589078
0.591356
0.593792
0.59644
0.599381
0.602748
0.606753
0.611762
0.618386
0.627606
0.640817
0.659606
0.685032
0.716598
0.751363
0.777156
0.79289
0.798843
0.799873
0.799636
0.798113
0.79633
0.786572
0.795852
0.799801
0.799998
0.8
0.8
0.8
0.8
0.8
0.8
0.8
0.8
0.799999
0.799999
0.79998
0.70967
0.699432
0.690527
0.679894
0.669394
0.659032
0.64969
0.642695
0.647465
0.261323
0.264469
0.268741
0.273959
0.279946
0.286536
0.293577
0.300939
0.308506
0.316177
0.323868
0.331507
0.339035
0.346406
0.353584
0.360542
0.367259
0.373721
0.379918
0.385845
0.3915
0.396884
0.402
0.406852
0.411449
0.4158
0.419918
0.42382
0.42753
0.43107
0.434461
0.437722
0.440864
0.443895
0.446819
0.449637
0.452353
0.454971
0.457501
0.459953
0.462339
0.464673
0.466966
0.469232
0.47148
0.47372
0.475962
0.478214
0.480483
0.482775
0.485093
0.487439
0.489811
0.492206
0.49462
0.497045
0.499475
0.501904
0.504322
0.506722
0.509097
0.511439
0.513742
0.515999
0.518211
0.520373
0.522477
0.524523
0.526521
0.528476
0.530395
0.532281
0.53414
0.535972
0.537781
0.539566
0.541328
0.543068
0.544787
0.546488
0.548172
0.549845
0.551508
0.553167
0.554824
0.556482
0.558145
0.559813
0.561489
0.563174
0.564868
0.566573
0.568285
0.570012
0.571759
0.573527
0.57532
0.577143
0.579
0.580899
0.582848
0.584858
0.586943
0.589123
0.591421
0.593872
0.596525
0.599454
0.602769
0.606653
0.611404
0.617527
0.625853
0.637645
0.654538
0.677993
0.708006
0.741506
0.771249
0.79464
0.799778
0.799999
0.8
0.799999
0.799965
0.799958
0.799968
0.799941
0.799997
0.8
0.8
0.8
0.8
0.8
0.8
0.8
0.8
0.8
0.8
0.8
0.796494
0.709421
0.699929
0.691451
0.681102
0.670654
0.660473
0.651135
0.644073
0.649553
0.27186
0.274816
0.278822
0.283721
0.289362
0.295596
0.30229
0.309319
0.316574
0.323958
0.331386
0.338787
0.346101
0.353281
0.360291
0.367102
0.373691
0.380044
0.386149
0.391998
0.397588
0.402914
0.407975
0.412768
0.417293
0.421553
0.425558
0.429327
0.432888
0.436272
0.439509
0.442623
0.445628
0.448527
0.451322
0.454008
0.456585
0.459055
0.461427
0.463712
0.465927
0.468088
0.470209
0.472306
0.474391
0.476474
0.478568
0.480683
0.482828
0.48501
0.487237
0.489508
0.491822
0.494176
0.496562
0.498974
0.501401
0.503836
0.506268
0.508688
0.511087
0.513456
0.515784
0.518082
0.520333
0.522522
0.524643
0.526689
0.528671
0.530606
0.532501
0.534365
0.536203
0.538018
0.539809
0.541576
0.54332
0.545039
0.546737
0.548413
0.550072
0.551718
0.553356
0.55499
0.556625
0.558266
0.559915
0.561575
0.563247
0.564931
0.56663
0.568344
0.570075
0.571817
0.573584
0.575379
0.577206
0.57907
0.580978
0.582937
0.58496
0.587058
0.589251
0.591561
0.59402
0.596671
0.59958
0.602842
0.606608
0.611121
0.616787
0.624279
0.634669
0.649491
0.670488
0.698614
0.731987
0.76387
0.783047
0.798873
0.799997
0.8
0.8
0.8
0.8
0.8
0.8
0.8
0.8
0.8
0.8
0.8
0.8
0.8
0.8
0.8
0.8
0.8
0.8
0.799965
0.783547
0.710344
0.700754
0.692327
0.68217
0.671841
0.66162
0.652323
0.645316
0.651813
0.281713
0.284514
0.288315
0.292977
0.298364
0.304342
0.310786
0.317578
0.324611
0.331787
0.339023
0.346248
0.353404
0.360444
0.367331
0.374036
0.38054
0.386826
0.392883
0.398703
0.404278
0.4096
0.414658
0.419439
0.423929
0.428123
0.432022
0.435646
0.439032
0.442228
0.44528
0.448222
0.45107
0.453828
0.456487
0.459034
0.46146
0.463763
0.465951
0.468038
0.470046
0.471995
0.473907
0.475798
0.477682
0.479572
0.481481
0.483424
0.485413
0.48746
0.489572
0.491751
0.493996
0.4963
0.498657
0.501054
0.503482
0.50593
0.508385
0.510836
0.513272
0.515681
0.518077
0.520439
0.522744
0.524976
0.527122
0.529173
0.531134
0.533041
0.534907
0.536743
0.538558
0.540352
0.542125
0.543875
0.5456
0.547298
0.54897
0.550618
0.552245
0.553857
0.55546
0.557061
0.558667
0.560283
0.561914
0.563561
0.565227
0.56691
0.568613
0.570337
0.572081
0.57384
0.575629
0.577454
0.57932
0.581232
0.583198
0.585229
0.587337
0.58954
0.59186
0.594325
0.596976
0.599869
0.603086
0.606753
0.611068
0.616352
0.623137
0.632289
0.645136
0.663433
0.688804
0.721117
0.755668
0.78245
0.789694
0.79976
0.799999
0.8
0.8
0.8
0.8
0.8
0.8
0.8
0.8
0.8
0.8
0.8
0.8
0.8
0.8
0.8
0.8
0.8
0.799999
0.799786
0.777051
0.711381
0.701643
0.693146
0.683088
0.672845
0.662686
0.653414
0.646567
0.654254
0.290871
0.293556
0.297216
0.301722
0.30695
0.312774
0.31907
0.325723
0.332624
0.339677
0.346796
0.353913
0.36097
0.367924
0.374739
0.38139
0.38786
0.394135
0.400206
0.406065
0.411703
0.417101
0.422238
0.427086
0.431743
0.436063
0.439876
0.443337
0.446498
0.449438
0.452238
0.454953
0.457609
0.460205
0.462717
0.465113
0.467367
0.469469
0.471424
0.473252
0.474983
0.476651
0.478284
0.479903
0.481522
0.483156
0.48482
0.486534
0.488316
0.490183
0.492144
0.494205
0.496361
0.498605
0.500925
0.503308
0.505741
0.508208
0.510697
0.513194
0.515685
0.518169
0.520662
0.523125
0.525532
0.527856
0.530062
0.532129
0.534061
0.535926
0.537749
0.539547
0.541331
0.543103
0.544859
0.546593
0.548299
0.549975
0.551618
0.55323
0.554815
0.55638
0.557934
0.559488
0.561052
0.562633
0.564237
0.565866
0.567521
0.569201
0.570908
0.572641
0.574401
0.576187
0.578002
0.57986
0.581769
0.583737
0.585772
0.58789
0.590104
0.592437
0.594916
0.597576
0.600468
0.603661
0.607259
0.611424
0.61641
0.622634
0.630776
0.641923
0.657653
0.679818
0.709465
0.744269
0.775648
0.793783
0.799455
0.799989
0.8
0.8
0.8
0.8
0.8
0.8
0.8
0.8
0.8
0.8
0.8
0.8
0.8
0.8
0.8
0.8
0.8
0.8
0.799999
0.799728
0.765532
0.712087
0.702393
0.693862
0.683898
0.673737
0.66366
0.654469
0.647932
0.656898
0.299343
0.301954
0.305535
0.30997
0.315135
0.320908
0.327164
0.333782
0.34065
0.347668
0.354751
0.36183
0.368853
0.375779
0.38258
0.389237
0.395738
0.402077
0.408249
0.414247
0.420058
0.425656
0.431208
0.436915
0.442492
0.447732
0.452273
0.455466
0.458167
0.460535
0.46276
0.464965
0.467207
0.469482
0.471732
0.473876
0.47584
0.477593
0.479136
0.4805
0.481737
0.482908
0.484063
0.485229
0.486419
0.487645
0.488925
0.490283
0.491746
0.493339
0.495077
0.496963
0.498991
0.501149
0.503418
0.505782
0.50822
0.510715
0.51325
0.515811
0.518381
0.521006
0.523647
0.526287
0.528897
0.531428
0.533795
0.535918
0.537806
0.539601
0.541349
0.543083
0.54482
0.546563
0.548301
0.550019
0.551706
0.553354
0.554959
0.556521
0.558044
0.559536
0.561011
0.562488
0.563983
0.565507
0.567067
0.568666
0.570304
0.571979
0.573688
0.575431
0.577209
0.579024
0.580863
0.582762
0.584728
0.586771
0.588902
0.591137
0.593496
0.596002
0.598689
0.601601
0.604798
0.608365
0.612435
0.61721
0.623015
0.63038
0.640166
0.653706
0.672795
0.699098
0.732184
0.765887
0.788975
0.798089
0.799916
0.799998
0.8
0.8
0.8
0.8
0.8
0.8
0.8
0.8
0.8
0.8
0.8
0.8
0.8
0.8
0.8
0.8
0.8
0.8
0.799998
0.799546
0.723172
0.711941
0.702917
0.694489
0.684649
0.674575
0.664594
0.655528
0.649435
0.659797
0.307147
0.309724
0.313292
0.31774
0.322946
0.328781
0.335114
0.341813
0.348756
0.355835
0.362965
0.370081
0.377136
0.3841
0.390954
0.39769
0.404308
0.410813
0.417206
0.423484
0.429637
0.435985
0.442894
0.450153
0.45781
0.465355
0.472225
0.475739
0.477644
0.478836
0.479862
0.48102
0.482466
0.484206
0.486108
0.487948
0.489509
0.490702
0.49152
0.492011
0.49228
0.49248
0.492719
0.493037
0.493442
0.493933
0.494523
0.495247
0.49615
0.497269
0.498626
0.500221
0.502039
0.504055
0.50624
0.508566
0.511004
0.51353
0.516125
0.518771
0.521456
0.524262
0.527149
0.530116
0.533148
0.536172
0.538985
0.54127
0.543086
0.544743
0.546343
0.547953
0.549608
0.55131
0.553034
0.554744
0.556415
0.558032
0.559587
0.561074
0.562494
0.56386
0.565192
0.566526
0.567891
0.569308
0.570787
0.572332
0.573937
0.575597
0.577307
0.579063
0.580865
0.582716
0.584611
0.586562
0.588603
0.590745
0.593001
0.59539
0.597935
0.600666
0.60362
0.606849
0.610428
0.614461
0.61911
0.624632
0.631435
0.640192
0.651991
0.668441
0.691423
0.721757
0.755794
0.782931
0.795895
0.79947
0.799988
0.8
0.8
0.8
0.8
0.8
0.8
0.8
0.8
0.8
0.8
0.8
0.8
0.8
0.8
0.8
0.8
0.8
0.8
0.8
0.799995
0.798974
0.723364
0.712491
0.703646
0.695199
0.685432
0.675424
0.665535
0.656627
0.651098
0.663013
0.314325
0.316921
0.32055
0.325097
0.330431
0.336411
0.342898
0.3499
0.357051
0.364296
0.371562
0.378792
0.385952
0.393027
0.400014
0.406923
0.413771
0.420577
0.427357
0.434128
0.441121
0.449421
0.4589
0.46955
0.481597
0.493029
0.504885
0.509021
0.509617
0.508307
0.506873
0.505968
0.505998
0.507044
0.508985
0.512033
0.513233
0.51363
0.513204
0.512018
0.510295
0.508495
0.506904
0.505596
0.504531
0.503654
0.502956
0.502487
0.502335
0.502573
0.503234
0.504306
0.505751
0.507517
0.509551
0.5118
0.51422
0.516777
0.519443
0.522202
0.525112
0.528183
0.53145
0.534967
0.538791
0.542887
0.546806
0.549397
0.551075
0.552418
0.55369
0.555032
0.556526
0.558179
0.559925
0.561665
0.563346
0.564943
0.566442
0.567825
0.569082
0.57022
0.571278
0.572332
0.573443
0.574652
0.575979
0.577422
0.57897
0.580606
0.582317
0.584093
0.585932
0.587835
0.58981
0.591822
0.593958
0.596231
0.598654
0.601244
0.604027
0.607037
0.610322
0.613946
0.618
0.622618
0.627996
0.634449
0.642495
0.653002
0.667361
0.687449
0.71478
0.747659
0.777099
0.793375
0.798745
0.799865
0.799998
0.8
0.8
0.8
0.8
0.8
0.8
0.8
0.8
0.8
0.8
0.8
0.8
0.8
0.8
0.8
0.8
0.8
0.8
0.8
0.799988
0.794856
0.724912
0.713619
0.704646
0.696073
0.686312
0.676335
0.666524
0.657799
0.652945
0.666631
0.320916
0.323602
0.327388
0.332157
0.337761
0.344033
0.350808
0.358037
0.365405
0.372907
0.380728
0.388156
0.395498
0.402766
0.409985
0.417187
0.424412
0.431704
0.439121
0.446732
0.456322
0.46824
0.482892
0.49821
0.515648
0.528207
0.543149
0.546117
0.545855
0.541282
0.537045
0.53391
0.532634
0.533631
0.538669
0.545951
0.548952
0.549032
0.547386
0.54391
0.538806
0.533536
0.528943
0.52511
0.521799
0.518775
0.51595
0.513408
0.511369
0.510023
0.509445
0.509604
0.510412
0.511757
0.513533
0.515646
0.51802
0.520602
0.523354
0.526259
0.52941
0.532842
0.53665
0.540984
0.546101
0.552097
0.558184
0.560908
0.562309
0.56296
0.563598
0.564448
0.565692
0.567367
0.569651
0.571786
0.573562
0.575196
0.576668
0.577942
0.578968
0.579718
0.580245
0.580759
0.581382
0.582204
0.583259
0.584534
0.585994
0.5876
0.589321
0.591135
0.59303
0.595011
0.597087
0.599267
0.60152
0.603948
0.606565
0.609392
0.612461
0.615814
0.619514
0.62365
0.628347
0.63377
0.640143
0.647846
0.657552
0.670422
0.688266
0.712962
0.743979
0.773706
0.791585
0.798111
0.799698
0.799968
0.8
0.8
0.8
0.8
0.8
0.8
0.8
0.8
0.8
0.8
0.8
0.8
0.8
0.8
0.8
0.8
0.8
0.8
0.8
0.799999
0.799858
0.789033
0.726674
0.715
0.705853
0.697127
0.687331
0.677353
0.667599
0.65907
0.654999
0.670777
0.326949
0.3298
0.333857
0.338994
0.345042
0.351791
0.359033
0.366637
0.37434
0.382089
0.390095
0.398083
0.406039
0.41362
0.421193
0.428839
0.43664
0.444701
0.453161
0.463284
0.477049
0.496007
0.517791
0.53444
0.553351
0.559283
0.563958
0.591346
0.600411
0.555576
0.552843
0.550541
0.549886
0.552207
0.561094
0.57293
0.576881
0.578827
0.578314
0.575152
0.567968
0.559994
0.553361
0.548015
0.543246
0.538473
0.533435
0.528272
0.523554
0.519851
0.517415
0.516222
0.516102
0.516846
0.518262
0.520189
0.522503
0.525115
0.527975
0.531068
0.534501
0.538347
0.542771
0.548069
0.554854
0.563184
0.571593
0.573816
0.574854
0.57434
0.574182
0.574425
0.57546
0.577455
0.582416
0.585591
0.587865
0.589676
0.591259
0.592531
0.59335
0.593535
0.593045
0.592559
0.592291
0.59244
0.593058
0.594092
0.595449
0.597042
0.598801
0.600681
0.602658
0.604739
0.60695
0.609319
0.611785
0.614453
0.617361
0.620524
0.623976
0.627783
0.63205
0.636931
0.642634
0.649366
0.657312
0.666927
0.67917
0.695685
0.71862
0.747923
0.775663
0.791984
0.798046
0.799639
0.79995
0.799993
0.8
0.8
0.8
0.8
0.8
0.8
0.8
0.8
0.8
0.8
0.8
0.8
0.8
0.8
0.8
0.8
0.8
0.8
0.8
0.799984
0.799342
0.780641
0.728175
0.716431
0.707217
0.698374
0.68853
0.678522
0.668793
0.660458
0.657277
0.675643
0.332456
0.335559
0.340022
0.345721
0.352446
0.359917
0.367841
0.375999
0.384168
0.39231
0.400573
0.408741
0.417196
0.425999
0.434099
0.442401
0.451089
0.460385
0.470621
0.486371
0.507091
0.535112
0.55996
0.569638
0.576575
0.704265
0.793317
0.796371
0.789324
0.77385
0.611065
0.563279
0.562384
0.566364
0.58155
0.588587
0.642377
0.754575
0.744421
0.628689
0.57807
0.572628
0.568449
0.565187
0.561887
0.557723
0.552123
0.545024
0.537483
0.531042
0.526417
0.523645
0.522465
0.522548
0.523593
0.525355
0.527646
0.530334
0.533344
0.536661
0.540372
0.544582
0.549522
0.55566
0.564147
0.573883
0.581002
0.599821
0.618274
0.585713
0.584757
0.584228
0.585124
0.588989
0.600484
0.606254
0.608656
0.610867
0.613332
0.61492
0.615802
0.615244
0.612282
0.60961
0.607477
0.606302
0.606163
0.606838
0.608072
0.609671
0.611497
0.613457
0.615506
0.61766
0.620008
0.622607
0.625475
0.628455
0.631727
0.635303
0.639241
0.643663
0.648789
0.654964
0.662607
0.671976
0.682933
0.696111
0.71321
0.73651
0.763644
0.784695
0.795072
0.798708
0.799723
0.799954
0.799995
0.8
0.8
0.8
0.8
0.8
0.8
0.8
0.8
0.8
0.8
0.8
0.8
0.8
0.8
0.8
0.8
0.8
0.8
0.8
0.799999
0.799934
0.797373
0.742502
0.728841
0.717885
0.708794
0.699885
0.689978
0.6799
0.670147
0.661974
0.659775
0.68154
0.337475
0.340927
0.345973
0.352501
0.360247
0.368791
0.377679
0.386605
0.395392
0.404039
0.412656
0.421171
0.429912
0.439287
0.449355
0.458688
0.468809
0.480248
0.495748
0.523134
0.548988
0.579694
0.588914
0.689011
0.792027
0.79893
0.799937
0.799973
0.799928
0.799785
0.795581
0.642937
0.580252
0.585292
0.604386
0.756423
0.79942
0.799829
0.799545
0.794557
0.624704
0.581131
0.579299
0.57863
0.577673
0.575441
0.570784
0.562443
0.551426
0.541932
0.535143
0.530927
0.528835
0.5284
0.529215
0.530951
0.53335
0.536222
0.539446
0.54301
0.546926
0.551315
0.556447
0.563032
0.573061
0.582809
0.680644
0.797208
0.797673
0.788385
0.66262
0.595626
0.595427
0.601005
0.615042
0.710035
0.796564
0.783282
0.799173
0.799413
0.793128
0.696183
0.622703
0.620884
0.618884
0.617757
0.617946
0.61906
0.620745
0.622766
0.624964
0.627219
0.629453
0.631704
0.634245
0.637185
0.640525
0.644192
0.648114
0.652416
0.657244
0.662912
0.66996
0.679218
0.691547
0.707104
0.724892
0.746176
0.768086
0.784856
0.794128
0.798045
0.799422
0.799849
0.799967
0.799994
0.799999
0.8
0.8
0.8
0.8
0.8
0.8
0.8
0.8
0.8
0.8
0.8
0.8
0.8
0.8
0.8
0.8
0.8
0.8
0.8
0.799999
0.799964
0.798195
0.746681
0.731136
0.720044
0.710854
0.701821
0.691785
0.681555
0.671708
0.663622
0.66243
0.688945
0.342046
0.345955
0.351813
0.359575
0.368896
0.379072
0.38932
0.399271
0.408835
0.418091
0.427174
0.436173
0.445401
0.455208
0.466342
0.47902
0.491819
0.507662
0.541733
0.584627
0.602273
0.615908
0.780261
0.798266
0.799898
0.799991
0.8
0.8
0.8
0.799999
0.799957
0.78459
0.695605
0.60946
0.677479
0.791609
0.799924
0.799999
0.799998
0.799963
0.792081
0.609042
0.674937
0.718737
0.704099
0.638908
0.600103
0.566339
0.556625
0.548079
0.54132
0.536793
0.534425
0.533893
0.534812
0.536819
0.539588
0.542846
0.546374
0.550169
0.554158
0.558422
0.563203
0.569547
0.580029
0.730081
0.798419
0.799979
0.799989
0.799879
0.79673
0.639293
0.602861
0.615824
0.634433
0.73654
0.799349
0.799881
0.799995
0.799996
0.799973
0.79945
0.79789
0.711991
0.626691
0.626278
0.627719
0.629897
0.632459
0.635223
0.638061
0.640831
0.643362
0.645609
0.648449
0.651999
0.656183
0.660959
0.666213
0.672222
0.67934
0.688369
0.700641
0.717943
0.740592
0.763992
0.780347
0.790527
0.79583
0.798189
0.799339
0.799782
0.799934
0.799982
0.799996
0.799999
0.8
0.8
0.8
0.8
0.8
0.8
0.8
0.8
0.8
0.8
0.8
0.8
0.8
0.8
0.8
0.8
0.8
0.8
0.8
0.8
0.8
0.799999
0.799848
0.753418
0.735223
0.723247
0.713671
0.704216
0.693962
0.6836
0.673625
0.665535
0.665077
0.698456
0.346207
0.350669
0.357635
0.367281
0.379173
0.392013
0.404233
0.415544
0.426049
0.435983
0.445619
0.45522
0.465161
0.475868
0.488034
0.503573
0.524853
0.553198
0.616805
0.642912
0.763408
0.793117
0.799655
0.799981
0.799999
0.8
0.8
0.8
0.8
0.8
0.799999
0.799804
0.770839
0.627041
0.725582
0.797085
0.799972
0.8
0.8
0.8
0.711866
0.639964
0.764345
0.798013
0.796111
0.701966
0.628161
0.569466
0.559753
0.551868
0.545523
0.541217
0.539072
0.538899
0.54038
0.543135
0.546746
0.550821
0.55475
0.558721
0.562743
0.566796
0.571142
0.576739
0.586359
0.758296
0.799274
0.799993
0.8
0.799999
0.799904
0.668597
0.631478
0.711196
0.721527
0.77208
0.799745
0.799998
0.8
0.8
0.8
0.799999
0.799995
0.791694
0.642144
0.642028
0.64429
0.647405
0.650925
0.654659
0.658505
0.662211
0.66511
0.666044
0.669174
0.67423
0.680721
0.688544
0.697906
0.709142
0.723063
0.740146
0.7593
0.77671
0.788869
0.795556
0.797813
0.798989
0.799502
0.799694
0.799873
0.799956
0.799986
0.799995
0.799999
0.8
0.8
0.8
0.8
0.8
0.8
0.8
0.8