/*--------------------------------*- C++ -*----------------------------------*\
| =========                 |                                                 |
| \\      /  F ield         | OpenFOAM: The Open Source CFD Toolbox           |
|  \\    /   O peration     | Version:  2.1.0                                 |
|   \\  /    A nd           | Web:      www.OpenFOAM.org                      |
|    \\/     M anipulation  |                                                 |
\*---------------------------------------------------------------------------*/
FoamFile
{
    version     2.0;
    format      ascii;
    class       volScalarField;
    location    "36135";
    object      sw;
}
// * * * * * * * * * * * * * * * * * * * * * * * * * * * * * * * * * * * * * //

dimensions      [0 0 0 0 0 0 0];

internalField   nonuniform List<scalar> 
15000
(
0.8
0.8
0.79999
0.799719
0.797797
0.79226
0.782956
0.771357
0.75891
0.746458
0.7344
0.722895
0.711996
0.701704
0.692
0.682856
0.674239
0.666118
0.65846
0.651236
0.644415
0.637969
0.631869
0.626089
0.620603
0.615386
0.610418
0.605676
0.60114
0.59679
0.592609
0.588579
0.584686
0.580918
0.577265
0.573716
0.570263
0.566898
0.563613
0.560401
0.557256
0.554171
0.551142
0.548163
0.545231
0.542341
0.539491
0.536679
0.533903
0.53116
0.528451
0.525773
0.523128
0.520516
0.517937
0.515392
0.512882
0.510409
0.507972
0.505573
0.503212
0.50089
0.498606
0.496361
0.494155
0.491986
0.489854
0.487758
0.485696
0.483666
0.481668
0.479699
0.477759
0.475846
0.473958
0.472094
0.470252
0.468431
0.46663
0.464848
0.463084
0.461336
0.459604
0.457887
0.456184
0.454495
0.452819
0.451157
0.449508
0.447872
0.44625
0.444641
0.443046
0.441465
0.439899
0.438349
0.436815
0.435298
0.4338
0.432322
0.430864
0.42943
0.428019
0.426633
0.425274
0.423944
0.422643
0.421374
0.420136
0.418931
0.41776
0.416621
0.415515
0.414439
0.413393
0.412376
0.411386
0.41042
0.409478
0.408555
0.407642
0.406725
0.405784
0.404791
0.40371
0.402506
0.401165
0.399731
0.398355
0.397225
0.396378
0.395778
0.395362
0.394944
0.39452
0.394083
0.39363
0.393156
0.392658
0.39213
0.391563
0.390941
0.390245
0.389441
0.388486
0.387305
0.385768
0.383602
0.380005
0.368354
0.8
0.799998
0.799951
0.799295
0.796307
0.789549
0.779542
0.767783
0.755468
0.743258
0.731462
0.720204
0.709524
0.699421
0.689879
0.680873
0.672373
0.664353
0.656782
0.649634
0.64288
0.636493
0.630444
0.624709
0.619264
0.614085
0.609152
0.604443
0.599938
0.595616
0.591459
0.587452
0.58358
0.579833
0.576201
0.572672
0.56924
0.565895
0.56263
0.559439
0.556313
0.553248
0.550237
0.547277
0.544362
0.54149
0.538658
0.535862
0.533101
0.530373
0.527676
0.52501
0.522376
0.519773
0.517202
0.514664
0.51216
0.509692
0.507259
0.504863
0.502505
0.500184
0.497902
0.495659
0.493453
0.491285
0.489154
0.487058
0.484996
0.482967
0.480969
0.479001
0.477061
0.475148
0.473261
0.471396
0.469555
0.467734
0.465933
0.46415
0.462385
0.460636
0.458902
0.457183
0.455477
0.453785
0.452105
0.450438
0.448784
0.447141
0.445512
0.443894
0.442289
0.440696
0.439117
0.437551
0.435999
0.434462
0.432941
0.431436
0.429949
0.428479
0.427028
0.425597
0.424186
0.422796
0.421427
0.420078
0.418748
0.417437
0.416141
0.414858
0.413584
0.412313
0.411041
0.409762
0.408469
0.407161
0.405833
0.404484
0.403097
0.401637
0.400043
0.398228
0.396072
0.393443
0.390257
0.386618
0.383091
0.380528
0.378863
0.37789
0.377405
0.377116
0.377012
0.377057
0.37717
0.37732
0.377532
0.377847
0.378286
0.378824
0.379405
0.379953
0.380376
0.38057
0.380388
0.379553
0.37727
0.366859
0.799991
0.799951
0.799612
0.797883
0.793151
0.784995
0.774431
0.762722
0.750731
0.73892
0.727511
0.7166
0.70622
0.696373
0.687048
0.678227
0.669886
0.662002
0.65455
0.647505
0.640841
0.634533
0.628557
0.622888
0.617502
0.61238
0.607498
0.602836
0.598374
0.594093
0.589974
0.586002
0.582166
0.578454
0.574855
0.571361
0.567962
0.56465
0.561417
0.558256
0.555162
0.552127
0.549146
0.546215
0.543328
0.540483
0.537676
0.534904
0.532164
0.529455
0.526776
0.524126
0.521505
0.518914
0.516353
0.513824
0.511328
0.508865
0.506437
0.504045
0.501689
0.499371
0.49709
0.494849
0.492645
0.490478
0.488348
0.486254
0.484194
0.482167
0.480172
0.478206
0.476268
0.474357
0.472471
0.470609
0.468769
0.46695
0.46515
0.463369
0.461605
0.459856
0.458122
0.456402
0.454695
0.453001
0.451318
0.449647
0.447988
0.44634
0.444703
0.443076
0.44146
0.439855
0.438261
0.436677
0.435106
0.433546
0.431998
0.430463
0.428941
0.427431
0.425934
0.42445
0.422978
0.421517
0.420065
0.418619
0.417178
0.415735
0.414284
0.412816
0.411321
0.409785
0.408189
0.406512
0.404732
0.402834
0.400825
0.398724
0.396526
0.394172
0.391542
0.388448
0.384634
0.379793
0.373656
0.366276
0.35913
0.355008
0.352658
0.351413
0.350886
0.350929
0.351553
0.352681
0.353959
0.355278
0.35674
0.358505
0.360647
0.363093
0.365703
0.368303
0.37072
0.372798
0.374369
0.375156
0.374373
0.365264
0.799734
0.799323
0.797925
0.794315
0.787718
0.778551
0.767828
0.756435
0.744935
0.733639
0.722705
0.71221
0.702187
0.692645
0.683579
0.674978
0.666827
0.659106
0.651796
0.644876
0.638322
0.632114
0.626227
0.620639
0.61533
0.610278
0.605461
0.600861
0.596456
0.592227
0.588159
0.584237
0.580448
0.576783
0.573231
0.569782
0.566428
0.56316
0.559971
0.556853
0.553801
0.550808
0.547868
0.544976
0.542127
0.539317
0.536543
0.533801
0.531089
0.528406
0.525749
0.523119
0.520515
0.517939
0.515391
0.512872
0.510384
0.507928
0.505504
0.503116
0.500763
0.498447
0.496169
0.493929
0.491727
0.489563
0.487436
0.485345
0.483288
0.481265
0.479273
0.477311
0.475378
0.47347
0.471588
0.46973
0.467893
0.466077
0.464281
0.462502
0.460741
0.458994
0.457262
0.455542
0.453835
0.45214
0.450456
0.448782
0.447118
0.445463
0.443819
0.442183
0.440556
0.438937
0.437327
0.435725
0.434131
0.432546
0.430969
0.4294
0.427838
0.426283
0.424733
0.423188
0.421645
0.420101
0.418553
0.416994
0.415419
0.413817
0.412175
0.410474
0.408691
0.40679
0.404722
0.40242
0.399816
0.396875
0.393651
0.390294
0.386865
0.383279
0.379325
0.374683
0.368912
0.361446
0.351662
0.339123
0.327175
0.323099
0.320906
0.319705
0.319146
0.31954
0.321095
0.323908
0.326747
0.329372
0.332145
0.335519
0.339727
0.344566
0.349758
0.354972
0.359893
0.364275
0.367918
0.370544
0.371387
0.363584
0.797938
0.796489
0.793364
0.787885
0.780074
0.770562
0.76009
0.749225
0.738328
0.727613
0.717202
0.707162
0.69753
0.688322
0.679541
0.671185
0.663244
0.655706
0.648556
0.641776
0.635348
0.629252
0.623469
0.617977
0.612757
0.607788
0.603049
0.598522
0.594185
0.590021
0.586016
0.582155
0.578426
0.57482
0.571326
0.567934
0.564636
0.561424
0.55829
0.555228
0.55223
0.549289
0.546401
0.543558
0.540757
0.537992
0.535259
0.532556
0.529878
0.527226
0.524597
0.521991
0.519408
0.516849
0.514315
0.511808
0.509328
0.506879
0.504461
0.502076
0.499726
0.497412
0.495136
0.492898
0.490699
0.488538
0.486414
0.484327
0.482275
0.480257
0.478271
0.476314
0.474386
0.472484
0.470608
0.468754
0.466923
0.465112
0.463321
0.461547
0.45979
0.458047
0.456317
0.454601
0.452895
0.4512
0.449515
0.447838
0.44617
0.44451
0.442858
0.441213
0.439574
0.437941
0.436313
0.43469
0.433073
0.43146
0.42985
0.428243
0.426637
0.425031
0.423423
0.42181
0.420187
0.418549
0.41689
0.415201
0.41347
0.411678
0.409804
0.407811
0.405651
0.403244
0.400473
0.397174
0.393172
0.388398
0.383085
0.377857
0.372886
0.367987
0.362789
0.356799
0.34938
0.339694
0.326644
0.308552
0.293783
0.292906
0.291058
0.290065
0.289337
0.289548
0.291369
0.296207
0.300443
0.303616
0.306829
0.31113
0.317187
0.324464
0.332451
0.340642
0.348441
0.355426
0.361338
0.365913
0.368412
0.36184
0.792758
0.790093
0.785549
0.779027
0.770851
0.761544
0.751598
0.741378
0.731132
0.72102
0.711145
0.701573
0.692343
0.683482
0.674999
0.6669
0.659181
0.651837
0.644857
0.638229
0.631937
0.625964
0.620294
0.614908
0.609787
0.604911
0.600262
0.595817
0.59156
0.587473
0.583541
0.579752
0.576095
0.572559
0.569134
0.56581
0.56258
0.559435
0.556369
0.553373
0.550441
0.547566
0.54474
0.541958
0.539215
0.536504
0.533822
0.531164
0.528529
0.525914
0.523318
0.520741
0.518182
0.515643
0.513125
0.51063
0.50816
0.505717
0.503304
0.500923
0.498575
0.496263
0.493988
0.491752
0.489555
0.487398
0.485278
0.483196
0.48115
0.479139
0.477159
0.47521
0.473289
0.471394
0.469525
0.467679
0.465854
0.46405
0.462266
0.460499
0.458747
0.45701
0.455286
0.453573
0.45187
0.450177
0.448491
0.446813
0.445141
0.443475
0.441815
0.44016
0.438509
0.436861
0.435215
0.433571
0.431928
0.430285
0.42864
0.426992
0.425338
0.423677
0.422004
0.420314
0.418602
0.41686
0.415078
0.41324
0.411328
0.409314
0.407159
0.404802
0.402145
0.399034
0.395221
0.390356
0.384063
0.376211
0.367472
0.359924
0.353555
0.347778
0.341941
0.335376
0.327317
0.316782
0.302383
0.280826
0.274422
0.251191
0.227898
0.211346
0.211449
0.225057
0.245774
0.286471
0.288677
0.289453
0.290468
0.292953
0.298677
0.306695
0.316189
0.326906
0.337467
0.346993
0.355097
0.361527
0.365575
0.360051
0.784028
0.780623
0.775465
0.76873
0.760769
0.75197
0.74267
0.733128
0.72353
0.714009
0.704658
0.695544
0.686713
0.678195
0.670011
0.66217
0.654677
0.647531
0.640725
0.634253
0.628101
0.622258
0.616707
0.611434
0.606419
0.601645
0.597092
0.59274
0.588572
0.584572
0.580725
0.57702
0.573445
0.569989
0.566643
0.563399
0.560248
0.557183
0.554197
0.55128
0.548427
0.545629
0.542878
0.540169
0.537494
0.534848
0.532226
0.529624
0.527039
0.524469
0.521912
0.519368
0.516837
0.51432
0.51182
0.509338
0.506878
0.504441
0.502032
0.499652
0.497305
0.494994
0.49272
0.490485
0.48829
0.486136
0.484021
0.481945
0.479906
0.477903
0.475931
0.473991
0.472079
0.470193
0.468333
0.466495
0.46468
0.462885
0.461109
0.459351
0.457607
0.455878
0.45416
0.452453
0.450755
0.449064
0.44738
0.445701
0.444026
0.442355
0.440687
0.439023
0.437359
0.435696
0.434031
0.432364
0.430693
0.429018
0.427336
0.425643
0.423938
0.422217
0.420473
0.418701
0.416891
0.415034
0.413113
0.411107
0.408989
0.406715
0.404222
0.401407
0.3981
0.394015
0.388699
0.381503
0.371717
0.359069
0.344904
0.33542
0.328601
0.322948
0.317484
0.311462
0.304152
0.294678
0.28174
0.260406
0.224633
0.200015
0.2
0.2
0.200069
0.203335
0.204876
0.211223
0.21665
0.22077
0.233966
0.25328
0.291508
0.296864
0.304321
0.316119
0.328584
0.339977
0.349761
0.357676
0.363002
0.358233
0.77313
0.769508
0.764333
0.757852
0.750371
0.742186
0.733548
0.724658
0.715669
0.706701
0.697842
0.689161
0.680709
0.672522
0.664626
0.657036
0.649763
0.642811
0.636178
0.62986
0.623849
0.618135
0.612706
0.607547
0.602643
0.597976
0.593525
0.589274
0.585205
0.581302
0.577551
0.57394
0.570457
0.567092
0.563837
0.560683
0.557623
0.55465
0.551756
0.548932
0.546171
0.543463
0.540801
0.538177
0.535583
0.533014
0.530464
0.527928
0.525403
0.522885
0.520374
0.517869
0.515369
0.512878
0.510397
0.507929
0.505477
0.503046
0.500639
0.49826
0.495912
0.493599
0.491324
0.489089
0.486896
0.484744
0.482634
0.480565
0.478534
0.47654
0.474579
0.472649
0.470747
0.468872
0.467022
0.465196
0.463391
0.461607
0.459842
0.458094
0.456362
0.454642
0.452933
0.451234
0.449542
0.447856
0.446174
0.444495
0.442818
0.441142
0.439466
0.437793
0.436117
0.434438
0.432753
0.431062
0.429363
0.427654
0.425931
0.424192
0.422432
0.420646
0.418826
0.416964
0.415049
0.413065
0.41099
0.408797
0.406443
0.403865
0.400963
0.397573
0.393416
0.388023
0.380647
0.370249
0.355697
0.336398
0.313957
0.304891
0.299322
0.294966
0.290817
0.286271
0.280807
0.273749
0.263876
0.243971
0.208827
0.200418
0.200005
0.2
0.2
0.20002
0.20004
0.20013
0.200222
0.200279
0.204703
0.207699
0.246929
0.273686
0.301642
0.312273
0.32384
0.335314
0.345758
0.354559
0.360774
0.356389
0.761456
0.757911
0.752992
0.746938
0.740002
0.732422
0.724398
0.716099
0.70766
0.699191
0.690779
0.682494
0.67439
0.66651
0.658882
0.651528
0.644463
0.637693
0.631224
0.625053
0.619176
0.613587
0.608276
0.603231
0.598437
0.593877
0.589535
0.585392
0.581431
0.577637
0.573993
0.570486
0.567106
0.563842
0.560687
0.557635
0.554678
0.551809
0.549021
0.546304
0.543649
0.541047
0.538489
0.535965
0.533467
0.530989
0.528524
0.526066
0.523612
0.521157
0.518699
0.516239
0.513776
0.511313
0.508852
0.506398
0.503956
0.501528
0.499121
0.496739
0.494388
0.49207
0.489791
0.487554
0.48536
0.48321
0.481105
0.479043
0.477022
0.475038
0.473089
0.471171
0.469282
0.467419
0.465582
0.463768
0.461976
0.460205
0.458453
0.456718
0.454998
0.453291
0.451594
0.449905
0.448221
0.446542
0.444864
0.443186
0.441508
0.439828
0.438146
0.436461
0.434772
0.433077
0.431372
0.429657
0.427928
0.426183
0.424419
0.42263
0.420812
0.418956
0.417055
0.415097
0.413066
0.410942
0.408698
0.406292
0.403666
0.400729
0.39733
0.393221
0.387972
0.380878
0.370857
0.356493
0.336371
0.30968
0.276994
0.272216
0.268809
0.266237
0.263756
0.26101
0.257758
0.253632
0.247572
0.228715
0.202813
0.200086
0.200001
0.2
0.2
0.2
0.2
0.200001
0.200002
0.200002
0.200062
0.200106
0.201398
0.256511
0.300697
0.310579
0.321324
0.3324
0.342935
0.352151
0.358894
0.354501
0.749839
0.746483
0.741895
0.736284
0.72986
0.722819
0.715332
0.707546
0.699583
0.691548
0.683528
0.675593
0.6678
0.660193
0.652807
0.645666
0.638788
0.632185
0.625863
0.619825
0.61407
0.608594
0.603391
0.59845
0.593761
0.589308
0.585077
0.58105
0.577208
0.573534
0.570009
0.566619
0.563351
0.560199
0.557155
0.554215
0.551372
0.548621
0.545954
0.54336
0.540829
0.53835
0.535913
0.533507
0.531124
0.528754
0.52639
0.524026
0.521655
0.519274
0.51688
0.514472
0.512051
0.50962
0.507182
0.504743
0.502307
0.499881
0.497471
0.495083
0.492722
0.490396
0.488109
0.485864
0.483667
0.481517
0.479416
0.477362
0.475351
0.47338
0.471445
0.469542
0.467667
0.465819
0.463996
0.462196
0.460418
0.458662
0.456926
0.455207
0.453503
0.451811
0.450129
0.448453
0.446781
0.445109
0.443438
0.441763
0.440085
0.438402
0.436714
0.435018
0.433318
0.431606
0.429881
0.42814
0.426379
0.424596
0.422786
0.420944
0.419062
0.417133
0.415143
0.413079
0.410922
0.408644
0.406208
0.40356
0.400619
0.397252
0.393247
0.388238
0.381614
0.372394
0.359183
0.340394
0.314968
0.283402
0.248637
0.222844
0.20711
0.201157
0.200127
0.200364
0.201887
0.20367
0.213428
0.204148
0.200199
0.200002
0.2
0.2
0.2
0.2
0.2
0.2
0.2
0.2
0.200001
0.200001
0.20002
0.29033
0.300568
0.309473
0.320106
0.330606
0.340968
0.35031
0.357305
0.352535
0.738677
0.735531
0.731259
0.726041
0.720054
0.713464
0.706423
0.699061
0.691494
0.683823
0.676132
0.668493
0.660965
0.653594
0.646416
0.639458
0.632741
0.626279
0.620082
0.614155
0.6085
0.603116
0.598
0.593148
0.588551
0.5842
0.580082
0.57618
0.57247
0.56893
0.565539
0.562278
0.559136
0.556105
0.553181
0.550363
0.547647
0.545029
0.542499
0.540047
0.537661
0.535327
0.533034
0.530768
0.52852
0.52628
0.524038
0.521786
0.519517
0.517225
0.514907
0.512561
0.510189
0.507794
0.50538
0.502955
0.500525
0.498096
0.495678
0.493278
0.490903
0.488561
0.486258
0.484001
0.481789
0.479627
0.477523
0.475477
0.473479
0.471524
0.469605
0.467719
0.46586
0.464028
0.462219
0.460434
0.458672
0.456932
0.455213
0.453512
0.451828
0.450155
0.448492
0.446833
0.445176
0.443518
0.441855
0.440187
0.438511
0.436826
0.435132
0.433427
0.431715
0.429988
0.428241
0.426473
0.42468
0.422857
0.421
0.419101
0.417152
0.415142
0.413057
0.410877
0.408579
0.406128
0.403475
0.400546
0.397231
0.393347
0.388596
0.382473
0.374147
0.362355
0.345462
0.322007
0.291994
0.258494
0.228751
0.20536
0.200222
0.200001
0.2
0.200001
0.200035
0.200042
0.200032
0.200059
0.200003
0.2
0.2
0.2
0.2
0.2
0.2
0.2
0.2
0.2
0.2
0.2
0.203506
0.290579
0.300071
0.308549
0.318898
0.329346
0.339527
0.348865
0.355927
0.350447
0.72814
0.725184
0.721178
0.716279
0.710638
0.704404
0.69771
0.690681
0.683426
0.676042
0.668614
0.661213
0.653899
0.646719
0.639709
0.632898
0.626309
0.619956
0.613851
0.608002
0.602412
0.597086
0.592025
0.587232
0.582707
0.578447
0.574442
0.570673
0.567112
0.563728
0.560491
0.557377
0.554372
0.551473
0.548678
0.545992
0.543415
0.540945
0.538573
0.536288
0.534073
0.531912
0.529791
0.527694
0.525609
0.523526
0.521432
0.519317
0.517172
0.51499
0.512763
0.510492
0.508178
0.505824
0.503438
0.501026
0.498599
0.496164
0.493732
0.491312
0.488913
0.486544
0.484216
0.481918
0.479667
0.477478
0.475357
0.473311
0.471329
0.469394
0.467499
0.465635
0.463797
0.461982
0.460191
0.458424
0.45668
0.454961
0.453263
0.451587
0.449928
0.448282
0.446644
0.44501
0.443375
0.441734
0.440085
0.438425
0.436753
0.435069
0.43337
0.431656
0.429925
0.428183
0.426416
0.424621
0.422794
0.42093
0.419022
0.417063
0.41504
0.412942
0.410749
0.408439
0.40598
0.403329
0.40042
0.397158
0.393392
0.388879
0.383213
0.375721
0.365331
0.350509
0.329512
0.301386
0.268013
0.23613
0.216953
0.201127
0.200003
0.2
0.2
0.2
0.2
0.2
0.2
0.2
0.2
0.2
0.2
0.2
0.2
0.2
0.2
0.2
0.2
0.2
0.2
0.200035
0.216453
0.289656
0.299246
0.307673
0.31783
0.328159
0.33838
0.347677
0.354684
0.348187
0.718287
0.715486
0.711685
0.707023
0.701636
0.695658
0.689214
0.682422
0.675389
0.668213
0.660977
0.653752
0.646596
0.639556
0.632669
0.625964
0.61946
0.613174
0.607117
0.601297
0.595722
0.5904
0.585342
0.580561
0.576071
0.571877
0.567978
0.564354
0.560968
0.557772
0.55472
0.551778
0.54893
0.546172
0.543513
0.540966
0.53854
0.536237
0.534049
0.531962
0.529954
0.528005
0.526093
0.524202
0.522318
0.520428
0.518519
0.516576
0.514587
0.51254
0.510428
0.508249
0.506004
0.5037
0.501343
0.498946
0.496518
0.49407
0.491615
0.489164
0.486728
0.484319
0.481923
0.479561
0.477256
0.475024
0.472878
0.470827
0.468866
0.466959
0.465093
0.463257
0.461442
0.459648
0.457875
0.456125
0.4544
0.452702
0.45103
0.449382
0.447755
0.446143
0.44454
0.442939
0.441333
0.439717
0.438086
0.436439
0.434773
0.43309
0.431387
0.429663
0.427919
0.42616
0.424371
0.422546
0.42068
0.418768
0.416802
0.414771
0.412663
0.41046
0.40814
0.405675
0.403024
0.400131
0.396914
0.393247
0.388932
0.383648
0.376863
0.367711
0.354864
0.336567
0.311196
0.278883
0.244332
0.21755
0.210306
0.20024
0.200001
0.2
0.2
0.2
0.2
0.2
0.2
0.2
0.2
0.2
0.2
0.2
0.2
0.2
0.2
0.2
0.2
0.2
0.200001
0.200214
0.222949
0.288619
0.298357
0.306854
0.316912
0.327155
0.337314
0.346586
0.353433
0.345746
0.709129
0.706444
0.702784
0.698278
0.69305
0.687226
0.68093
0.674277
0.667376
0.660323
0.653204
0.646087
0.63903
0.632076
0.625261
0.61861
0.61214
0.605865
0.599794
0.593935
0.588297
0.582899
0.577762
0.572914
0.568257
0.563937
0.560124
0.556663
0.553502
0.550562
0.547762
0.545047
0.542391
0.539795
0.537283
0.534887
0.532633
0.530531
0.528576
0.526748
0.525017
0.523349
0.521716
0.520097
0.518478
0.516844
0.51518
0.513466
0.511684
0.509817
0.507856
0.505795
0.503639
0.501395
0.499075
0.496692
0.494259
0.491792
0.489303
0.486806
0.484315
0.481831
0.479338
0.476875
0.474468
0.472144
0.469938
0.467871
0.465939
0.464074
0.462251
0.460453
0.458669
0.456897
0.455141
0.453407
0.451701
0.450025
0.448382
0.44677
0.445185
0.44362
0.442066
0.440512
0.438948
0.437367
0.435763
0.434134
0.432479
0.430799
0.429092
0.427359
0.425599
0.423813
0.421998
0.42014
0.418231
0.416263
0.414228
0.41211
0.409896
0.407563
0.405084
0.402424
0.399532
0.396339
0.392741
0.388576
0.38359
0.377366
0.369224
0.358077
0.342347
0.320182
0.290535
0.255731
0.224352
0.206217
0.200545
0.200011
0.2
0.2
0.2
0.2
0.2
0.2
0.2
0.2
0.2
0.2
0.2
0.2
0.2
0.2
0.2
0.2
0.2
0.2
0.200001
0.200272
0.234468
0.287913
0.297607
0.306138
0.316102
0.326263
0.33634
0.345531
0.352068
0.343102
0.700657
0.698046
0.694465
0.69003
0.684865
0.679092
0.672836
0.666218
0.65935
0.652332
0.645249
0.63817
0.631147
0.624221
0.61742
0.610763
0.604262
0.597923
0.591751
0.585753
0.579942
0.574344
0.568792
0.563085
0.557508
0.552268
0.547727
0.544534
0.541833
0.539465
0.53724
0.535035
0.532793
0.530518
0.528268
0.526124
0.52416
0.522407
0.520864
0.5195
0.518263
0.517092
0.515937
0.514771
0.513581
0.512355
0.511075
0.509717
0.508254
0.506661
0.504923
0.503037
0.501009
0.498851
0.496582
0.494218
0.49178
0.489285
0.48675
0.484189
0.481619
0.478994
0.476353
0.473713
0.471103
0.468572
0.466205
0.464082
0.462194
0.460399
0.458651
0.456917
0.45518
0.453437
0.451699
0.449981
0.448294
0.446646
0.445041
0.443479
0.441956
0.440464
0.438989
0.437512
0.436017
0.434493
0.432933
0.431334
0.429696
0.428021
0.426312
0.424569
0.422791
0.420976
0.419137
0.417238
0.415272
0.413229
0.411098
0.408863
0.406504
0.403998
0.401311
0.398399
0.395202
0.391635
0.387565
0.38279
0.376985
0.36962
0.359834
0.346294
0.327205
0.300902
0.267816
0.234113
0.211025
0.201911
0.200084
0.200002
0.2
0.2
0.2
0.2
0.2
0.2
0.2
0.2
0.2
0.2
0.2
0.2
0.2
0.2
0.2
0.2
0.2
0.2
0.200002
0.200454
0.276828
0.288059
0.297083
0.305511
0.315351
0.325425
0.335406
0.344472
0.350565
0.340203
0.692853
0.690276
0.686708
0.68226
0.677054
0.671219
0.664886
0.658187
0.651244
0.644165
0.637035
0.629919
0.622864
0.6159
0.609046
0.60231
0.595692
0.589187
0.582794
0.576516
0.570363
0.564015
0.557106
0.549847
0.54219
0.534645
0.527775
0.524261
0.522356
0.521164
0.520138
0.51898
0.517534
0.515794
0.513892
0.512052
0.510491
0.509298
0.50848
0.507989
0.50772
0.50752
0.507281
0.506963
0.506558
0.506067
0.505477
0.504753
0.50385
0.502731
0.501374
0.499779
0.497961
0.495945
0.49376
0.491434
0.488996
0.48647
0.483875
0.481229
0.478544
0.475738
0.472851
0.469884
0.466852
0.463828
0.461015
0.45873
0.456914
0.455257
0.453657
0.452047
0.450392
0.44869
0.446966
0.445256
0.443585
0.441968
0.440413
0.438926
0.437506
0.43614
0.434808
0.433474
0.432109
0.430692
0.429213
0.427668
0.426063
0.424403
0.422693
0.420937
0.419135
0.417284
0.415389
0.413438
0.411397
0.409255
0.406999
0.40461
0.402065
0.399334
0.39638
0.393151
0.389572
0.385539
0.38089
0.375368
0.368565
0.359808
0.348009
0.331559
0.308577
0.278243
0.244206
0.217069
0.204105
0.20053
0.200012
0.2
0.2
0.2
0.2
0.2
0.2
0.2
0.2
0.2
0.2
0.2
0.2
0.2
0.2
0.2
0.2
0.2
0.2
0.2
0.200005
0.201026
0.276636
0.287509
0.296354
0.304801
0.314568
0.324576
0.334465
0.343373
0.348902
0.336987
0.685675
0.683079
0.67945
0.674903
0.669569
0.663589
0.657102
0.6501
0.642949
0.635704
0.628438
0.621208
0.614048
0.606973
0.599986
0.593077
0.586229
0.579423
0.572643
0.565872
0.558879
0.550579
0.5411
0.53045
0.518403
0.506971
0.495115
0.490979
0.490383
0.491693
0.493127
0.494032
0.494002
0.492956
0.491015
0.487967
0.486767
0.48637
0.486796
0.487982
0.489705
0.491505
0.493096
0.494404
0.495469
0.496346
0.497044
0.497513
0.497665
0.497427
0.496766
0.495694
0.494249
0.492483
0.490449
0.4882
0.48578
0.483223
0.480557
0.477798
0.474888
0.471817
0.46855
0.465033
0.461209
0.457113
0.453194
0.450603
0.448925
0.447582
0.44631
0.444968
0.443474
0.441821
0.440075
0.438335
0.436654
0.435057
0.433558
0.432175
0.430918
0.42978
0.428722
0.427668
0.426557
0.425348
0.424021
0.422578
0.42103
0.419394
0.417683
0.415907
0.414068
0.412165
0.41019
0.408178
0.406042
0.403769
0.401346
0.398756
0.395973
0.392963
0.389678
0.386054
0.382
0.377382
0.372004
0.365551
0.357505
0.346998
0.332639
0.312551
0.28522
0.252341
0.222901
0.206625
0.201255
0.200135
0.200002
0.2
0.2
0.2
0.2
0.2
0.2
0.2
0.2
0.2
0.2
0.2
0.2
0.2
0.2
0.2
0.2
0.2
0.2
0.2
0.200012
0.205144
0.275088
0.286381
0.295354
0.303927
0.313688
0.323665
0.333476
0.342201
0.347055
0.333369
0.679084
0.676398
0.672612
0.667843
0.662239
0.655967
0.649192
0.641963
0.634595
0.627093
0.619272
0.611844
0.604502
0.597234
0.590015
0.582813
0.575588
0.568296
0.560879
0.553268
0.543678
0.53176
0.517108
0.50179
0.484352
0.471793
0.456851
0.453883
0.454145
0.458718
0.462955
0.46609
0.467366
0.466369
0.461331
0.454049
0.451048
0.450968
0.452614
0.45609
0.461194
0.466464
0.471057
0.47489
0.478201
0.481225
0.48405
0.486592
0.488631
0.489977
0.490555
0.490396
0.489588
0.488243
0.486467
0.484354
0.48198
0.479398
0.476646
0.473741
0.47059
0.467158
0.46335
0.459016
0.453899
0.447903
0.441816
0.439092
0.437691
0.43704
0.436402
0.435552
0.434308
0.432633
0.430349
0.428214
0.426438
0.424804
0.423332
0.422058
0.421032
0.420282
0.419755
0.419241
0.418618
0.417796
0.416741
0.415466
0.414006
0.4124
0.410679
0.408865
0.40697
0.404989
0.402913
0.400733
0.39848
0.396052
0.393435
0.390608
0.387539
0.384186
0.380486
0.37635
0.371653
0.36623
0.359857
0.352154
0.342448
0.329578
0.311734
0.287038
0.256021
0.226294
0.208415
0.201889
0.200302
0.200032
0.2
0.2
0.2
0.2
0.2
0.2
0.2
0.2
0.2
0.2
0.2
0.2
0.2
0.2
0.2
0.2
0.2
0.2
0.2
0.200001
0.200142
0.210967
0.273326
0.285
0.294147
0.302873
0.312669
0.322647
0.332401
0.34093
0.345001
0.329223
0.673051
0.6702
0.666143
0.661006
0.654958
0.648209
0.640967
0.633363
0.62566
0.617911
0.609905
0.601917
0.593961
0.58638
0.578807
0.571161
0.56336
0.555299
0.546839
0.536716
0.522951
0.503993
0.482209
0.46556
0.446649
0.440717
0.436042
0.408654
0.399589
0.444424
0.447157
0.449459
0.450114
0.447793
0.438906
0.42707
0.423119
0.421173
0.421686
0.424848
0.432032
0.440006
0.446639
0.451985
0.456754
0.461527
0.466565
0.471728
0.476446
0.480149
0.482585
0.483778
0.483898
0.483154
0.481738
0.479811
0.477497
0.474885
0.472025
0.468932
0.465499
0.461653
0.457229
0.451931
0.445146
0.436816
0.428407
0.426184
0.425146
0.42566
0.425818
0.425575
0.42454
0.422545
0.417584
0.414409
0.412135
0.410324
0.408741
0.407469
0.40665
0.406465
0.406955
0.407441
0.407709
0.40756
0.406942
0.405908
0.404551
0.402958
0.401199
0.399319
0.397342
0.395261
0.39305
0.390681
0.388215
0.385547
0.382639
0.379476
0.376024
0.372217
0.36795
0.363069
0.357366
0.350634
0.342688
0.333073
0.32083
0.304315
0.28138
0.252077
0.224337
0.208016
0.201954
0.200361
0.20005
0.200007
0.2
0.2
0.2
0.2
0.2
0.2
0.2
0.2
0.2
0.2
0.2
0.2
0.2
0.2
0.2
0.2
0.2
0.2
0.2
0.200016
0.200658
0.219359
0.271825
0.283569
0.292783
0.301626
0.31147
0.321478
0.331207
0.339542
0.342723
0.324357
0.667544
0.664441
0.659978
0.654279
0.647554
0.640083
0.632159
0.624001
0.615832
0.60769
0.599427
0.591259
0.582804
0.574001
0.565901
0.557599
0.548911
0.539615
0.529379
0.513629
0.492909
0.464888
0.44004
0.430362
0.423425
0.295735
0.206683
0.203629
0.210676
0.22615
0.388935
0.436721
0.437616
0.433636
0.41845
0.411413
0.357623
0.245425
0.255579
0.371311
0.42193
0.427372
0.431551
0.434813
0.438113
0.442277
0.447877
0.454976
0.462517
0.468958
0.473583
0.476355
0.477535
0.477452
0.476407
0.474645
0.472354
0.469666
0.466656
0.463339
0.459628
0.455418
0.450478
0.44434
0.435853
0.426117
0.418998
0.400179
0.381726
0.414287
0.415243
0.415772
0.414876
0.411011
0.399516
0.393746
0.391344
0.389133
0.386668
0.38508
0.384198
0.384756
0.387718
0.39039
0.392523
0.393698
0.393837
0.393162
0.391928
0.390329
0.388503
0.386543
0.384494
0.38234
0.379992
0.377393
0.374525
0.371545
0.368273
0.364697
0.360759
0.356337
0.351211
0.345036
0.337393
0.328024
0.317067
0.303889
0.28679
0.26349
0.236356
0.215305
0.204928
0.201292
0.200277
0.200046
0.200005
0.2
0.2
0.2
0.2
0.2
0.2
0.2
0.2
0.2
0.2
0.2
0.2
0.2
0.2
0.2
0.2
0.2
0.2
0.2
0.200001
0.200066
0.202627
0.257498
0.271159
0.282115
0.291206
0.300115
0.310022
0.3201
0.329853
0.338026
0.340225
0.31846
0.662525
0.659073
0.654027
0.647499
0.639753
0.631209
0.622321
0.613395
0.604608
0.595961
0.587344
0.578829
0.570088
0.560713
0.550645
0.541312
0.531191
0.519752
0.504252
0.476866
0.451012
0.420306
0.411086
0.310989
0.207973
0.20107
0.200063
0.200027
0.200072
0.200215
0.204419
0.357063
0.419748
0.414708
0.395614
0.243577
0.20058
0.200171
0.200455
0.205443
0.375296
0.418869
0.420701
0.42137
0.422327
0.424559
0.429216
0.437557
0.448574
0.458068
0.464857
0.469073
0.471165
0.4716
0.470785
0.469049
0.46665
0.463778
0.460554
0.45699
0.453074
0.448685
0.443553
0.436968
0.426939
0.417191
0.319356
0.202792
0.202327
0.211615
0.33738
0.404374
0.404573
0.398995
0.384958
0.289965
0.203436
0.216718
0.200827
0.200587
0.206872
0.303817
0.377297
0.379116
0.381116
0.382243
0.382054
0.38094
0.379255
0.377234
0.375036
0.372781
0.370547
0.368296
0.365755
0.362815
0.359475
0.355808
0.351886
0.347584
0.342756
0.337088
0.33004
0.320782
0.308453
0.292896
0.275108
0.253824
0.231914
0.215144
0.205872
0.201955
0.200578
0.200151
0.200033
0.200006
0.200001
0.2
0.2
0.2
0.2
0.2
0.2
0.2
0.2
0.2
0.2
0.2
0.2
0.2
0.2
0.2
0.2
0.2
0.2
0.2
0.200001
0.200036
0.201805
0.253319
0.268864
0.279956
0.289146
0.298179
0.308215
0.318445
0.328292
0.336378
0.33757
0.311055
0.657954
0.654045
0.648187
0.640425
0.631104
0.620928
0.61068
0.600729
0.591165
0.581909
0.572826
0.563827
0.554599
0.544792
0.533658
0.52098
0.508181
0.492338
0.458267
0.415373
0.397727
0.384092
0.219739
0.201734
0.200102
0.200009
0.2
0.2
0.2
0.200001
0.200043
0.21541
0.304395
0.39054
0.322521
0.208391
0.200076
0.200001
0.200002
0.200037
0.207919
0.390958
0.325063
0.281263
0.295901
0.361092
0.399897
0.433661
0.443375
0.451921
0.45868
0.463207
0.465575
0.466107
0.465188
0.463181
0.460412
0.457154
0.453626
0.449831
0.445842
0.441578
0.436797
0.430453
0.419971
0.269919
0.201581
0.200021
0.200011
0.200121
0.20327
0.360707
0.397139
0.384176
0.365567
0.26346
0.200651
0.200119
0.200005
0.200004
0.200027
0.20055
0.20211
0.288009
0.373309
0.373722
0.372281
0.370103
0.367541
0.364777
0.361939
0.359169
0.356638
0.354391
0.351551
0.348001
0.343817
0.339041
0.333787
0.327778
0.32066
0.311631
0.299359
0.282057
0.259408
0.236008
0.219653
0.209473
0.20417
0.201811
0.200661
0.200218
0.200066
0.200018
0.200004
0.200001
0.2
0.2
0.2
0.2
0.2
0.2
0.2
0.2
0.2
0.2
0.2
0.2
0.2
0.2
0.2
0.2
0.2
0.2
0.2
0.2
0.2
0.200001
0.200152
0.246582
0.264777
0.276753
0.286329
0.295784
0.306038
0.3164
0.326375
0.334465
0.334923
0.301544
0.653793
0.649331
0.642365
0.632719
0.620827
0.607987
0.595767
0.584456
0.573951
0.564017
0.554381
0.54478
0.534839
0.524132
0.511966
0.496427
0.475147
0.446802
0.383195
0.357088
0.236592
0.206883
0.200345
0.200019
0.200001
0.2
0.2
0.2
0.2
0.2
0.200001
0.200196
0.229161
0.372959
0.274418
0.202915
0.200028
0.2
0.2
0.2
0.288134
0.360036
0.235655
0.201987
0.203889
0.298034
0.371839
0.430534
0.440247
0.448132
0.454477
0.458783
0.460928
0.461101
0.45962
0.456865
0.453254
0.449179
0.44525
0.441279
0.437257
0.433204
0.428858
0.423261
0.413641
0.241704
0.200726
0.200007
0.2
0.200001
0.200096
0.331403
0.368522
0.288804
0.278473
0.22792
0.200255
0.200002
0.2
0.2
0.2
0.200001
0.200005
0.208306
0.357856
0.357972
0.35571
0.352595
0.349075
0.345341
0.341495
0.337789
0.33489
0.333956
0.330826
0.32577
0.319279
0.311456
0.302094
0.290858
0.276937
0.259854
0.2407
0.22329
0.211131
0.204444
0.202187
0.201011
0.200498
0.200306
0.200127
0.200044
0.200014
0.200005
0.200001
0.2
0.2
0.2
0.2
0.2
0.2
0.2
0.2