/*--------------------------------*- C++ -*----------------------------------*\
| =========                 |                                                 |
| \\      /  F ield         | OpenFOAM: The Open Source CFD Toolbox           |
|  \\    /   O peration     | Version:  1.6                                   |
|   \\  /    A nd           | Web:      www.OpenFOAM.org                      |
|    \\/     M anipulation  |                                                 |
\*---------------------------------------------------------------------------*/
FoamFile
{
    version     2.0;
    format      ascii;
    class       volScalarField;
    location    "0.3";
    object      T;
}
// * * * * * * * * * * * * * * * * * * * * * * * * * * * * * * * * * * * * * //

dimensions      [0 0 0 0 0 0 0];

internalField   nonuniform List<scalar> 
400
(
4.99192
7.70808
8.6212
9.00811
9.20669
9.32219
9.39386
9.43883
9.46546
9.47789
9.47789
9.46546
9.43883
9.39386
9.32219
9.20669
9.00811
8.6212
7.70808
4.99192
2.24353
4.92757
6.39029
7.2133
7.70391
8.01128
8.20922
8.33587
8.41163
8.44719
8.44719
8.41163
8.33587
8.20922
8.01128
7.7039
7.2133
6.39028
4.92757
2.24353
1.29845
3.36921
4.80039
5.75266
6.38651
6.8123
7.0986
7.28673
7.40105
7.45517
7.45517
7.40105
7.28673
7.0986
6.81229
6.3865
5.75266
4.80039
3.36921
1.29845
0.879945
2.45167
3.69142
4.61317
5.28049
5.75661
6.0904
6.31594
6.45544
6.52211
6.52211
6.45543
6.31593
6.0904
5.7566
5.28048
4.61316
3.69142
2.45167
0.879943
0.650128
1.86768
2.90299
3.73153
4.36987
4.84812
5.19585
5.43698
5.5887
5.66193
5.66193
5.58869
5.43697
5.19584
4.84811
4.36986
3.73152
2.90299
1.86767
0.650125
0.503612
1.46769
2.32424
3.04399
3.62416
4.07573
4.41412
4.6541
4.80745
4.88213
4.88213
4.80744
4.65409
4.41411
4.07571
3.62415
3.04398
2.32423
1.46769
0.503611
0.400885
1.17713
1.88538
2.50024
3.01224
3.42252
3.73749
3.96508
4.11243
4.18475
4.18475
4.11242
3.96507
3.73748
3.42251
3.01223
2.50022
1.88537
1.17713
0.400884
0.324343
0.956528
1.54307
2.06365
2.50738
2.87083
3.15518
3.36375
3.50027
3.56772
3.56771
3.50026
3.36374
3.15516
2.87082
2.50737
2.06363
1.54306
0.95652
0.32434
0.264951
0.78349
1.26989
1.70819
2.08811
2.40443
2.65554
2.84193
2.96501
3.02614
3.02613
2.965
2.84192
2.65552
2.40442
2.0881
1.70817
1.26988
0.783482
0.264948
0.217546
0.644451
1.04787
1.41525
1.73758
2.00924
2.2273
2.39067
2.49929
2.55347
2.55347
2.49929
2.39066
2.22729
2.00923
1.73757
1.41524
1.04786
0.644446
0.217544
0.17892
0.530666
0.864755
1.17129
1.4426
1.67333
1.8601
2.00103
2.09524
2.14239
2.14239
2.09523
2.00102
1.86009
1.67332
1.44259
1.17128
0.864749
0.530663
0.178919
0.146938
0.436174
0.711875
0.96619
1.19272
1.38666
1.54464
1.6645
1.74496
1.78533
1.78532
1.74495
1.66449
1.54463
1.38665
1.19271
0.96618
0.711868
0.436171
0.146937
0.120094
0.356701
0.582808
0.792178
0.979545
1.14075
1.27268
1.37319
1.44087
1.4749
1.4749
1.44087
1.37318
1.27267
1.14074
0.979536
0.792169
0.582802
0.356697
0.120092
0.0972746
0.289044
0.472638
0.643112
0.79619
0.928368
1.03693
1.11989
1.17589
1.20408
1.20408
1.17589
1.11989
1.03693
0.928365
0.796185
0.643108
0.472634
0.289042
0.0972735
0.0776201
0.230712
0.377468
0.51401
0.63692
0.743334
0.830962
0.898078
0.94346
0.966337
0.966337
0.943461
0.898078
0.830963
0.743335
0.636921
0.51401
0.377468
0.230712
0.07762
0.0604407
0.179688
0.294107
0.400716
0.496852
0.580246
0.649048
0.701834
0.737572
0.755604
0.755605
0.737575
0.701836
0.649052
0.58025
0.496856
0.40072
0.29411
0.17969
0.0604413
0.0451635
0.13429
0.219864
0.299677
0.37174
0.434338
0.486053
0.525776
0.552696
0.566287
0.566288
0.552699
0.525779
0.486057
0.434344
0.371746
0.299682
0.219868
0.134293
0.0451644
0.0312953
0.0930635
0.152396
0.207773
0.257815
0.301324
0.337302
0.364961
0.383717
0.39319
0.393191
0.383719
0.364964
0.337307
0.301329
0.25782
0.207777
0.1524
0.0930662
0.0312964
0.0183983
0.0547148
0.0896089
0.12219
0.151648
0.177276
0.19848
0.214788
0.225852
0.231442
0.231442
0.225854
0.21479
0.198482
0.177279
0.151651
0.122193
0.0896115
0.0547163
0.0183989
0.00607031
0.018053
0.0295679
0.0403217
0.0500472
0.0585103
0.0655145
0.070903
0.0745594
0.0764067
0.076407
0.07456
0.0709037
0.0655152
0.0585115
0.0500482
0.0403226
0.0295688
0.0180535
0.00607048
)
;

boundaryField
{
    left
    {
        type            fixedValue;
        value           uniform 0;
    }
    down
    {
        type            fixedValue;
        value           uniform 10;
    }
    up
    {
        type            fixedValue;
        value           uniform 0;
    }
    right
    {
        type            fixedValue;
        value           uniform 0;
    }
    frontAndBack
    {
        type            empty;
    }
}


// ************************************************************************* //
