/*--------------------------------*- C++ -*----------------------------------*\
| =========                 |                                                 |
| \\      /  F ield         | OpenFOAM: The Open Source CFD Toolbox           |
|  \\    /   O peration     | Version:  2.1.0                                 |
|   \\  /    A nd           | Web:      www.OpenFOAM.org                      |
|    \\/     M anipulation  |                                                 |
\*---------------------------------------------------------------------------*/
FoamFile
{
    version     2.0;
    format      ascii;
    class       volScalarField;
    location    "56210";
    object      kr_o;
}
// * * * * * * * * * * * * * * * * * * * * * * * * * * * * * * * * * * * * * //

dimensions      [0 0 0 0 0 0 0];

internalField   nonuniform List<scalar> 
15000
(
2.19755e-14
0
1.43188e-09
7.91509e-07
1.80325e-05
0.000135209
0.000512263
0.00126272
0.00238006
0.00379287
0.00542727
0.00722715
0.00915292
0.0111756
0.0132729
0.0154266
0.0176211
0.0198432
0.022081
0.0243247
0.0265659
0.0287974
0.0310136
0.0332101
0.0353836
0.0375318
0.0396533
0.0417476
0.0438145
0.0458547
0.047869
0.0498586
0.0518251
0.0537699
0.0556949
0.0576021
0.0594935
0.0613714
0.0632383
0.0650966
0.0669481
0.0687948
0.070638
0.0724792
0.0743194
0.0761596
0.0780005
0.0798426
0.0816861
0.0835309
0.0853766
0.0872225
0.0890677
0.0909109
0.0927509
0.0945861
0.096415
0.0982359
0.100047
0.101847
0.103635
0.105409
0.107168
0.108911
0.110638
0.112349
0.114042
0.11572
0.117382
0.119027
0.120658
0.122274
0.123875
0.125464
0.127039
0.128603
0.130155
0.131697
0.133228
0.134749
0.136261
0.137764
0.139257
0.140742
0.142219
0.143686
0.145144
0.146593
0.148033
0.149461
0.150878
0.152284
0.153677
0.155056
0.156421
0.157771
0.159103
0.160418
0.161712
0.162986
0.164237
0.165464
0.166665
0.167839
0.168984
0.170098
0.171182
0.172233
0.17325
0.174234
0.175183
0.176098
0.17698
0.17783
0.178648
0.179436
0.180195
0.180927
0.181634
0.182318
0.182985
0.183644
0.184307
0.184991
0.185714
0.186497
0.187348
0.188245
0.189105
0.189816
0.190358
0.190753
0.191037
0.191321
0.191608
0.191902
0.192205
0.192521
0.192851
0.193199
0.19357
0.193973
0.194421
0.194932
0.195531
0.196256
0.197176
0.19842
0.20031
0.204157
0
0
0
2.35736e-06
3.54261e-05
0.000206654
0.000673395
0.0015151
0.00270223
0.00416169
0.00582592
0.00764525
0.00958413
0.0116162
0.0137207
0.0158802
0.0180798
0.0203064
0.0225486
0.0247964
0.0270414
0.0292766
0.0314962
0.0336958
0.035872
0.0380226
0.040146
0.0422418
0.0443099
0.0463509
0.0483657
0.0503556
0.0523219
0.0542662
0.0561904
0.0580964
0.0599865
0.0618628
0.0637279
0.0655841
0.0674334
0.0692775
0.0711179
0.0729561
0.0747933
0.0766305
0.0784686
0.0803081
0.0821493
0.0839921
0.0858363
0.087681
0.0895253
0.0913684
0.0932087
0.0950446
0.0968747
0.0986972
0.100511
0.102313
0.104103
0.10588
0.107641
0.109386
0.111116
0.112829
0.114525
0.116205
0.117868
0.119516
0.121148
0.122765
0.124368
0.125957
0.127534
0.129099
0.130652
0.132195
0.133727
0.13525
0.136763
0.138267
0.139762
0.141249
0.142727
0.144196
0.145657
0.147109
0.148552
0.149984
0.151405
0.152816
0.154215
0.155602
0.156976
0.158335
0.159679
0.161006
0.162316
0.163606
0.164877
0.166126
0.167353
0.168556
0.169734
0.170888
0.172017
0.17312
0.174198
0.175252
0.176283
0.177294
0.178286
0.179264
0.180229
0.181184
0.182131
0.183069
0.184
0.184925
0.185856
0.186813
0.187833
0.18897
0.190292
0.191882
0.193802
0.196009
0.198175
0.199757
0.200785
0.201381
0.201665
0.201834
0.201895
0.201869
0.201805
0.201721
0.201605
0.201433
0.201195
0.200906
0.200599
0.200318
0.200114
0.200045
0.200186
0.20067
0.201818
0.204934
1.43195e-09
0
7.01417e-07
1.15989e-05
8.87281e-05
0.000364326
0.000967313
0.00192801
0.00319733
0.00470777
0.00640269
0.00824086
0.010192
0.0122328
0.014344
0.0165092
0.018714
0.0209454
0.0231922
0.0254443
0.0276934
0.0299321
0.0321549
0.034357
0.0365351
0.0386869
0.0408108
0.0429064
0.0449737
0.0470131
0.0490258
0.051013
0.0529759
0.0549163
0.0568361
0.0587372
0.0606219
0.0624926
0.0643518
0.0662018
0.0680446
0.0698819
0.0717155
0.0735468
0.0753773
0.077208
0.07904
0.0808739
0.08271
0.0845485
0.0863891
0.0882311
0.0900736
0.0919155
0.0937553
0.0955917
0.0974229
0.0992471
0.101063
0.102867
0.10466
0.106439
0.108203
0.109952
0.111684
0.113399
0.115097
0.116779
0.118443
0.120092
0.121724
0.123342
0.124945
0.126535
0.128112
0.129677
0.13123
0.132772
0.134304
0.135827
0.13734
0.138845
0.14034
0.141828
0.143308
0.144779
0.146243
0.147698
0.149144
0.150581
0.152008
0.153426
0.154833
0.156229
0.157613
0.158985
0.160343
0.161687
0.163015
0.164328
0.165623
0.166901
0.16816
0.169401
0.170623
0.171828
0.173015
0.174186
0.175344
0.176491
0.177632
0.178771
0.179916
0.181073
0.18225
0.183455
0.184693
0.185965
0.18727
0.188598
0.189961
0.191397
0.192983
0.194832
0.197107
0.200013
0.203748
0.208352
0.212916
0.215531
0.216996
0.217744
0.218014
0.21794
0.217516
0.216789
0.215974
0.215138
0.214221
0.213131
0.211824
0.210347
0.208784
0.207239
0.205813
0.204597
0.203679
0.203194
0.203457
0.205762
7.13499e-07
2.1802e-06
1.11675e-05
5.92692e-05
0.000237979
0.000674386
0.00144091
0.00252527
0.00387389
0.00543144
0.00715416
0.00900932
0.0109717
0.0130208
0.0151388
0.0173102
0.0195208
0.0217579
0.02401
0.0262672
0.0285208
0.0307636
0.0329895
0.0351939
0.0373733
0.0395252
0.0416483
0.0437419
0.0458062
0.0478417
0.0498495
0.0518308
0.0537872
0.0557204
0.0576323
0.059525
0.0614007
0.0632619
0.0651111
0.0669506
0.0687824
0.0706085
0.0724308
0.074251
0.0760706
0.0778909
0.0797132
0.0815382
0.0833665
0.0851982
0.0870331
0.0888706
0.0907099
0.0925499
0.094389
0.0962256
0.098058
0.0998842
0.101702
0.10351
0.105306
0.107089
0.108856
0.110608
0.112343
0.11406
0.11576
0.117442
0.119108
0.120756
0.122389
0.124006
0.125609
0.127198
0.128774
0.130337
0.131889
0.133431
0.134962
0.136483
0.137995
0.139499
0.140995
0.142483
0.143964
0.145437
0.146903
0.148361
0.149812
0.151254
0.152688
0.154113
0.155529
0.156936
0.158334
0.15972
0.161096
0.162459
0.16381
0.165149
0.166474
0.167786
0.169086
0.170373
0.171648
0.172914
0.174173
0.175428
0.176683
0.177946
0.179224
0.180527
0.18187
0.183268
0.184741
0.186313
0.188005
0.18983
0.191775
0.193772
0.195802
0.197921
0.200261
0.203024
0.206498
0.211063
0.217155
0.225234
0.233124
0.23569
0.237002
0.237665
0.237907
0.237575
0.236544
0.234759
0.232949
0.231269
0.229507
0.227391
0.224781
0.221795
0.218604
0.215409
0.212405
0.209741
0.207531
0.205909
0.205179
0.206624
1.61793e-05
3.24319e-05
8.36375e-05
0.000231764
0.000576789
0.00120154
0.00212511
0.0033169
0.00473164
0.00632844
0.00807482
0.00994514
0.0119183
0.0139761
0.0161019
0.0182808
0.0204987
0.0227429
0.025002
0.0272657
0.0295251
0.0317727
0.0340023
0.0362092
0.0383895
0.0405409
0.0426618
0.0447518
0.046811
0.04884
0.0508403
0.052813
0.0547599
0.0566826
0.0585833
0.0604638
0.0623266
0.0641743
0.0660092
0.0678336
0.0696499
0.0714601
0.0732665
0.075071
0.0768753
0.0786811
0.0804897
0.0823022
0.0841193
0.0859415
0.0877684
0.0895999
0.0914348
0.093272
0.0951099
0.0969468
0.0987807
0.100609
0.102431
0.104243
0.106043
0.10783
0.109602
0.111357
0.113095
0.114814
0.116516
0.118199
0.119864
0.121513
0.123144
0.12476
0.126361
0.127948
0.129522
0.131083
0.132633
0.134172
0.135701
0.13722
0.138731
0.140233
0.141728
0.143216
0.144697
0.146171
0.147639
0.149101
0.150556
0.152004
0.153445
0.154879
0.156306
0.157726
0.159137
0.160541
0.161936
0.163323
0.1647
0.166069
0.167429
0.168782
0.170127
0.171467
0.172805
0.174142
0.175485
0.176837
0.178209
0.179609
0.181053
0.182559
0.184153
0.185868
0.187752
0.189864
0.192272
0.195036
0.198114
0.201175
0.20411
0.207025
0.210143
0.213773
0.218329
0.224361
0.232553
0.24439
0.254322
0.254684
0.255631
0.256062
0.256323
0.256033
0.254812
0.251846
0.249184
0.247151
0.24511
0.242441
0.238734
0.234277
0.229372
0.224322
0.219503
0.215187
0.211536
0.208685
0.206919
0.207498
0.000120938
0.000188152
0.000340031
0.000646784
0.00118002
0.00197501
0.00302418
0.00429803
0.00576346
0.00739152
0.00915818
0.0110429
0.0130276
0.0150956
0.0172314
0.01942
0.0216477
0.0239017
0.0261701
0.0284425
0.0307097
0.0329639
0.0351985
0.0374085
0.0395899
0.0417402
0.0438579
0.0459426
0.0479947
0.0500151
0.0520051
0.0539664
0.0559006
0.0578096
0.0596954
0.0615602
0.0634062
0.065236
0.0670521
0.0688568
0.0706526
0.072442
0.0742274
0.076011
0.077795
0.0795814
0.0813719
0.0831679
0.0849703
0.0867799
0.0885964
0.0904197
0.0922488
0.0940824
0.0959189
0.0977563
0.0995924
0.101425
0.103251
0.105068
0.106873
0.108666
0.110443
0.112202
0.113943
0.115666
0.117369
0.119052
0.120717
0.122364
0.123994
0.125608
0.127206
0.12879
0.130361
0.131919
0.133465
0.135
0.136526
0.138042
0.139549
0.141049
0.142541
0.144027
0.145508
0.146983
0.148453
0.149918
0.151378
0.152832
0.154282
0.155725
0.157163
0.158596
0.160025
0.161447
0.162865
0.164277
0.165684
0.167087
0.168487
0.169884
0.171282
0.172682
0.174089
0.175508
0.176945
0.178409
0.179914
0.181475
0.183115
0.184866
0.186773
0.188901
0.191345
0.194238
0.197762
0.202134
0.207269
0.211823
0.215708
0.219247
0.222834
0.226892
0.231911
0.238497
0.247387
0.261632
0.266924
0.277666
0.287517
0.29825
0.304538
0.299437
0.28511
0.258291
0.256572
0.255852
0.255045
0.253425
0.249966
0.245133
0.239392
0.232846
0.226331
0.220418
0.215373
0.211341
0.208587
0.208356
0.000459018
0.000612874
0.000898894
0.00136956
0.00206178
0.00298399
0.0041226
0.00545521
0.00695877
0.00861255
0.010398
0.012298
0.0142965
0.0163778
0.0185268
0.0207288
0.0229701
0.0252374
0.0275188
0.0298034
0.0320815
0.0343449
0.0365866
0.0388011
0.0409843
0.0431334
0.0452472
0.0473253
0.0493682
0.0513774
0.0533545
0.0553013
0.0572199
0.059112
0.0609796
0.0628249
0.0646503
0.066458
0.0682503
0.07003
0.0717997
0.0735623
0.0753206
0.0770775
0.0788354
0.080597
0.0823642
0.0841389
0.0859224
0.0877157
0.0895188
0.0913318
0.0931536
0.0949828
0.0968177
0.0986559
0.100495
0.102332
0.104164
0.105987
0.1078
0.1096
0.111383
0.113148
0.114894
0.116619
0.118324
0.120008
0.121672
0.123318
0.124945
0.126555
0.12815
0.12973
0.131296
0.132849
0.13439
0.135921
0.137441
0.138952
0.140455
0.14195
0.143439
0.144923
0.146401
0.147876
0.149347
0.150815
0.15228
0.153741
0.155199
0.156652
0.158103
0.159551
0.160997
0.16244
0.163882
0.165323
0.166763
0.168203
0.169646
0.171093
0.172548
0.174014
0.175498
0.177006
0.178549
0.180139
0.181794
0.183539
0.185407
0.187451
0.189743
0.192395
0.195579
0.199555
0.204731
0.211774
0.22067
0.226745
0.231104
0.234677
0.238096
0.241843
0.246378
0.252192
0.259813
0.274472
0.311311
0.539659
0.561374
0.562476
0.549458
0.389636
0.393691
0.396072
0.37493
0.354468
0.323045
0.292392
0.256221
0.252109
0.247189
0.239724
0.231918
0.224792
0.218665
0.213677
0.210096
0.209172
0.00113468
0.00137977
0.00178682
0.00238522
0.00318958
0.00419781
0.00539754
0.00677266
0.00830674
0.00998397
0.0117892
0.0137073
0.0157234
0.0178226
0.0199898
0.0222104
0.0244704
0.0267563
0.0290557
0.0313573
0.0336508
0.0359274
0.0381795
0.040401
0.0425876
0.0447362
0.0468454
0.0489153
0.0509471
0.0529425
0.0549039
0.0568335
0.0587333
0.0606053
0.0624514
0.0642739
0.0660742
0.0678547
0.0696177
0.0713662
0.0731032
0.0748323
0.0765567
0.0782799
0.080005
0.081735
0.0834728
0.0852204
0.08698
0.0887527
0.090539
0.0923389
0.0941516
0.0959755
0.0978085
0.099648
0.101491
0.103334
0.105174
0.107007
0.108829
0.110638
0.11243
0.114202
0.115954
0.117683
0.11939
0.121074
0.122737
0.12438
0.126003
0.127609
0.129198
0.130773
0.132333
0.13388
0.135415
0.136939
0.138453
0.139957
0.141453
0.142943
0.144426
0.145906
0.147382
0.148855
0.150326
0.151796
0.153265
0.154733
0.1562
0.157665
0.159129
0.160593
0.162058
0.163524
0.164992
0.166463
0.167938
0.169419
0.170908
0.172409
0.173926
0.175464
0.177031
0.178638
0.180296
0.182025
0.183849
0.185802
0.187936
0.190324
0.19308
0.196376
0.200484
0.205842
0.213243
0.224359
0.239837
0.246101
0.249889
0.252732
0.255334
0.258084
0.261307
0.265318
0.270483
0.286034
0.337624
0.463335
0.555229
0.562268
0.562398
0.555819
0.553502
0.550932
0.544844
0.540582
0.391954
0.372582
0.301171
0.27129
0.249084
0.242104
0.234826
0.227651
0.22111
0.215555
0.211386
0.209928
0.00214147
0.00245949
0.00295435
0.00363923
0.00451723
0.00558308
0.00682655
0.00823563
0.00979763
0.0114995
0.0133281
0.0152693
0.017309
0.0194324
0.0216245
0.0238706
0.0261563
0.0284678
0.0307922
0.0331175
0.0354329
0.0377285
0.0399961
0.0422287
0.0444213
0.0465705
0.0486752
0.0507357
0.052754
0.0547327
0.0566752
0.0585841
0.060462
0.062311
0.0641326
0.065928
0.0676989
0.0694467
0.0711741
0.0728843
0.0745811
0.0762684
0.0779505
0.0796316
0.0813155
0.083006
0.0847066
0.0864203
0.0881496
0.0898963
0.0916614
0.093445
0.0952462
0.0970637
0.0988947
0.100736
0.102585
0.104436
0.106286
0.108131
0.109966
0.111787
0.113591
0.115373
0.117133
0.118867
0.120577
0.122261
0.123922
0.12556
0.127179
0.128778
0.130362
0.131929
0.133482
0.135022
0.13655
0.138065
0.13957
0.141066
0.142553
0.144034
0.14551
0.146983
0.148454
0.149924
0.151395
0.152866
0.154338
0.155813
0.157288
0.158766
0.160242
0.161723
0.163208
0.164698
0.166194
0.167698
0.16921
0.170735
0.172274
0.173833
0.175417
0.177033
0.178691
0.180405
0.182191
0.184074
0.186086
0.188277
0.190715
0.193504
0.196804
0.200853
0.206031
0.212974
0.222971
0.239279
0.263816
0.268278
0.271452
0.273446
0.274949
0.276038
0.277193
0.278557
0.28037
0.301118
0.38283
0.511404
0.558967
0.562381
0.562496
0.562364
0.562257
0.5621
0.561835
0.56173
0.545315
0.541198
0.49692
0.277996
0.249476
0.243018
0.236278
0.229377
0.222795
0.21698
0.212448
0.210619
0.00340888
0.00377885
0.00433292
0.00507497
0.00600311
0.00711118
0.00839058
0.00983155
0.0114234
0.0131547
0.0150129
0.0169848
0.0190561
0.0212122
0.0234381
0.0257187
0.0280394
0.0303859
0.0327447
0.0351032
0.0374494
0.0397726
0.0420631
0.0443131
0.0465163
0.0486691
0.0507697
0.0528194
0.0548212
0.0567795
0.058699
0.0605838
0.0624368
0.0642597
0.0660536
0.0678183
0.0695545
0.0712635
0.0729478
0.0746111
0.0762579
0.0778935
0.0795229
0.0811514
0.0827837
0.0844247
0.0860785
0.0877492
0.0894402
0.0911541
0.0928923
0.0946554
0.0964426
0.098252
0.100081
0.101925
0.103781
0.105644
0.107508
0.109369
0.11122
0.113058
0.114878
0.116674
0.118444
0.120186
0.121899
0.123584
0.125241
0.126874
0.128485
0.130077
0.131652
0.133211
0.134756
0.136287
0.137805
0.13931
0.140804
0.142289
0.143765
0.145234
0.146699
0.148163
0.149626
0.151091
0.152559
0.15403
0.155506
0.156986
0.15847
0.15996
0.161451
0.162948
0.164454
0.165969
0.167495
0.169033
0.170587
0.172158
0.173752
0.175374
0.177031
0.178732
0.180489
0.18232
0.184247
0.1863
0.188525
0.190984
0.19377
0.19702
0.200934
0.205818
0.212144
0.220712
0.233265
0.254397
0.283079
0.319885
0.348993
0.388737
0.455966
0.51697
0.507112
0.454381
0.347835
0.357604
0.464327
0.555976
0.562218
0.562491
0.5625
0.562497
0.562494
0.562488
0.56248
0.562478
0.561902
0.561684
0.557304
0.255986
0.249338
0.243494
0.236883
0.230376
0.223927
0.218039
0.213313
0.21125
0.00486109
0.00526791
0.00586351
0.006647
0.00761434
0.00875928
0.0100742
0.0115505
0.0131784
0.0149471
0.0168444
0.018857
0.0209708
0.0231708
0.0254418
0.0277687
0.0301364
0.0325303
0.0349362
0.0373407
0.0397307
0.0420939
0.0444192
0.0466967
0.0489185
0.0510795
0.0531778
0.0552152
0.0571966
0.0591294
0.0610208
0.0628769
0.0647015
0.0664957
0.0682585
0.0699884
0.0716845
0.0733472
0.074979
0.0765845
0.0781694
0.0797402
0.0813038
0.0828663
0.0844338
0.0860121
0.0876067
0.0892226
0.0908647
0.0925366
0.0942406
0.0959776
0.097747
0.0995466
0.101373
0.103222
0.105087
0.106965
0.108847
0.110729
0.112604
0.114465
0.116306
0.118122
0.119914
0.121674
0.123397
0.125081
0.126734
0.128359
0.129961
0.131543
0.133108
0.134658
0.136193
0.137713
0.139219
0.140711
0.14219
0.143659
0.145118
0.146571
0.148021
0.14947
0.150922
0.152378
0.153839
0.155308
0.156784
0.158269
0.159762
0.161263
0.162773
0.164288
0.165815
0.167357
0.168915
0.17049
0.172087
0.173709
0.175361
0.177051
0.178787
0.180579
0.182445
0.184405
0.186488
0.188734
0.191198
0.193963
0.197144
0.200906
0.205491
0.211254
0.218742
0.228902
0.243983
0.269895
0.298158
0.375388
0.500361
0.560554
0.56248
0.562313
0.556927
0.553349
0.55761
0.529473
0.552079
0.561831
0.562474
0.562499
0.5625
0.5625
0.5625
0.5625
0.562499
0.562499
0.562487
0.562486
0.493552
0.255263
0.249346
0.243855
0.237424
0.231027
0.224719
0.218842
0.214028
0.211835
0.00643795
0.00687316
0.00750183
0.00832091
0.00932541
0.0105092
0.0118652
0.0133851
0.0150595
0.0168774
0.0188265
0.0208932
0.0230632
0.0253213
0.0276521
0.0300404
0.0324708
0.0349286
0.037399
0.0398675
0.04232
0.0447422
0.0471204
0.0494419
0.051696
0.0538747
0.0559745
0.0579979
0.0599532
0.0618523
0.0637076
0.0655289
0.0673204
0.0690823
0.0708113
0.0725025
0.0741524
0.07576
0.0773277
0.0788609
0.0803676
0.0818566
0.0833366
0.0848155
0.0863007
0.087799
0.0893173
0.0908627
0.0924414
0.0940588
0.0957184
0.0974218
0.0991683
0.100955
0.102779
0.104633
0.106512
0.108409
0.110316
0.112226
0.114131
0.116024
0.117896
0.119758
0.121589
0.123379
0.125122
0.126813
0.128458
0.130072
0.131659
0.133227
0.134778
0.136314
0.137836
0.139343
0.140834
0.14231
0.143771
0.145219
0.146656
0.148086
0.149514
0.150942
0.152376
0.153817
0.155268
0.156731
0.158206
0.159693
0.161193
0.162705
0.16423
0.165763
0.167313
0.168882
0.170473
0.172088
0.173731
0.175407
0.177123
0.178886
0.180708
0.182602
0.184589
0.186695
0.188955
0.19142
0.19416
0.197271
0.200888
0.205204
0.210485
0.217125
0.225731
0.237416
0.25512
0.286247
0.309623
0.446676
0.560177
0.562477
0.5625
0.5625
0.56244
0.562324
0.562326
0.560949
0.561932
0.562469
0.562499
0.5625
0.5625
0.5625
0.5625
0.5625
0.5625
0.5625
0.5625
0.558756
0.353965
0.255383
0.249535
0.244164
0.237906
0.231585
0.225311
0.219476
0.214639
0.212387
0.00809474
0.0085546
0.00921447
0.0100701
0.0111163
0.0123468
0.0137547
0.0153313
0.017067
0.0189501
0.0209677
0.0231058
0.0253496
0.0276837
0.0300928
0.0325617
0.0350755
0.0376191
0.0401778
0.0427363
0.0452789
0.0477891
0.05025
0.0526442
0.0549555
0.05717
0.0592803
0.0612883
0.0632075
0.0650589
0.0668642
0.0686387
0.0703897
0.0721158
0.0738089
0.0754586
0.0770561
0.0785977
0.0800853
0.0815264
0.0829319
0.0843148
0.0856869
0.0870581
0.0884367
0.0898311
0.0912497
0.0927019
0.0941968
0.0957421
0.097343
0.0990021
0.100719
0.10249
0.104309
0.106171
0.108067
0.109989
0.111928
0.113877
0.115824
0.117761
0.119704
0.121625
0.12351
0.125344
0.127115
0.128817
0.130451
0.132045
0.133612
0.135159
0.136693
0.138214
0.139722
0.141214
0.142689
0.144145
0.145584
0.147005
0.148413
0.149813
0.151209
0.152608
0.154016
0.155436
0.156871
0.158323
0.159793
0.161281
0.162786
0.164308
0.165848
0.167404
0.168975
0.170571
0.172196
0.173853
0.175546
0.177281
0.179067
0.180913
0.182833
0.184845
0.186972
0.189249
0.191717
0.194437
0.197489
0.200983
0.205068
0.209949
0.215911
0.223367
0.232982
0.246079
0.266626
0.304525
0.320753
0.512552
0.5609
0.562469
0.5625
0.5625
0.562499
0.562497
0.562496
0.562459
0.562484
0.562499
0.5625
0.5625
0.5625
0.5625
0.5625
0.5625
0.5625
0.562496
0.562205
0.539076
0.319405
0.255595
0.249754
0.244425
0.238288
0.232065
0.22585
0.22002
0.215181
0.212918
0.00979687
0.0102811
0.0109748
0.0118733
0.012971
0.0142616
0.0157375
0.0173894
0.0192065
0.0211758
0.0232835
0.0255147
0.0278543
0.0302869
0.0327977
0.0353722
0.0379962
0.0406558
0.0433362
0.0460224
0.0486976
0.0513428
0.0539363
0.0564543
0.0589213
0.0612721
0.0634179
0.0654119
0.0672753
0.0690455
0.0707648
0.0724632
0.0741538
0.0758334
0.0774857
0.0790884
0.0806225
0.0820784
0.0834574
0.0847698
0.0860329
0.087267
0.0884893
0.0897124
0.0909455
0.0921975
0.0934787
0.0948019
0.0961802
0.0976254
0.0991454
0.100744
0.102419
0.104167
0.105981
0.107852
0.109769
0.111724
0.113706
0.115705
0.11771
0.119729
0.121759
0.123774
0.125754
0.127673
0.129502
0.131223
0.132839
0.134404
0.135938
0.137455
0.138964
0.140466
0.141958
0.143434
0.144889
0.14632
0.147728
0.149114
0.15048
0.151834
0.153184
0.154538
0.155906
0.157292
0.158702
0.160136
0.161596
0.163079
0.164586
0.166116
0.167669
0.169246
0.170839
0.172464
0.174126
0.17583
0.17758
0.179384
0.181253
0.183198
0.185237
0.187391
0.18969
0.19217
0.194883
0.197894
0.201291
0.20519
0.209747
0.215167
0.221739
0.229889
0.24033
0.254604
0.27786
0.322134
0.41522
0.538964
0.561989
0.562492
0.5625
0.5625
0.5625
0.5625
0.5625
0.562499
0.5625
0.5625
0.5625
0.5625
0.5625
0.5625
0.5625
0.5625
0.5625
0.562491
0.561959
0.538728
0.294776
0.255623
0.249883
0.244615
0.238598
0.232472
0.226326
0.220533
0.215707
0.213443
0.0115161
0.0120269
0.0127607
0.0137127
0.014877
0.0162469
0.0178135
0.0195659
0.021491
0.023574
0.0257992
0.0281509
0.0306137
0.0331731
0.0358153
0.0385277
0.0412982
0.044115
0.0469658
0.0498367
0.0527115
0.0555697
0.0584681
0.0615361
0.0646428
0.0676478
0.0703115
0.0722593
0.0739497
0.0754677
0.0769231
0.0783879
0.0798966
0.0814455
0.082998
0.0845
0.085903
0.0871833
0.0883399
0.08939
0.0903665
0.0913097
0.0922504
0.0932056
0.0941838
0.0951925
0.0962429
0.0973521
0.0985397
0.0998232
0.101214
0.102715
0.104325
0.106035
0.107835
0.109713
0.111656
0.113651
0.115688
0.117754
0.119839
0.121981
0.124147
0.126323
0.128485
0.130588
0.132561
0.134336
0.13592
0.13743
0.138904
0.140368
0.141838
0.143313
0.144785
0.146241
0.147671
0.149069
0.150434
0.151765
0.153066
0.154346
0.155618
0.156896
0.158195
0.159524
0.160888
0.162289
0.163725
0.165196
0.166698
0.16823
0.169793
0.171386
0.173005
0.174658
0.176359
0.178116
0.179934
0.181822
0.183794
0.185864
0.188052
0.190383
0.192889
0.195612
0.198605
0.201935
0.20569
0.209987
0.214975
0.220859
0.227924
0.236599
0.247641
0.262806
0.288399
0.335649
0.469612
0.548611
0.562199
0.562495
0.5625
0.5625
0.5625
0.5625
0.5625
0.5625
0.5625
0.5625
0.5625
0.5625
0.5625
0.5625
0.5625
0.5625
0.5625
0.562488
0.56206
0.550268
0.26259
0.255177
0.249869
0.244744
0.238866
0.232841
0.22677
0.221026
0.21623
0.213969
0.013228
0.0137695
0.014553
0.0155738
0.0168259
0.0183016
0.0199901
0.0218771
0.0239456
0.0261777
0.0285553
0.0310618
0.0336821
0.0364036
0.0392153
0.0421082
0.0450747
0.0481081
0.0512014
0.0543467
0.0575329
0.0609046
0.0647221
0.0688827
0.0734492
0.0781286
0.0825457
0.0848285
0.086124
0.0869752
0.0877357
0.0885992
0.0896688
0.0909494
0.0923528
0.0937272
0.0949238
0.0958803
0.0965887
0.0970802
0.0974279
0.0977373
0.09808
0.0984841
0.0989521
0.0994829
0.100086
0.100784
0.101611
0.102592
0.103744
0.105068
0.106556
0.108192
0.109956
0.111831
0.113798
0.11584
0.117945
0.120099
0.122313
0.124623
0.12701
0.129475
0.132004
0.134534
0.136888
0.138803
0.14033
0.141725
0.143072
0.144428
0.145822
0.147253
0.1487
0.150132
0.151528
0.152877
0.154173
0.155415
0.156604
0.157752
0.15888
0.160016
0.161185
0.162404
0.16368
0.165014
0.166403
0.167841
0.169324
0.170847
0.17241
0.174014
0.175663
0.177341
0.179085
0.180903
0.182802
0.184794
0.186893
0.189115
0.191485
0.194028
0.196778
0.199775
0.203067
0.206718
0.21081
0.215451
0.220786
0.227012
0.23441
0.243419
0.254842
0.270647
0.298348
0.345765
0.510204
0.559107
0.562423
0.562499
0.5625
0.5625
0.5625
0.5625
0.5625
0.5625
0.5625
0.5625
0.5625
0.5625
0.5625
0.5625
0.5625
0.5625
0.562499
0.562469
0.561246
0.524324
0.261659
0.255027
0.249944
0.244909
0.239146
0.23321
0.227209
0.221516
0.216755
0.214498
0.0149135
0.0154936
0.0163402
0.0174482
0.0188101
0.0204185
0.0222853
0.0243548
0.0266146
0.0290419
0.031616
0.0343197
0.0371402
0.0400685
0.0430991
0.0462302
0.0494628
0.0528006
0.0562496
0.0598182
0.0636203
0.068332
0.0739692
0.0806387
0.0886243
0.0965997
0.105305
0.108362
0.108791
0.107826
0.106793
0.106177
0.106269
0.107125
0.108694
0.111132
0.112149
0.11257
0.112378
0.111623
0.110479
0.109296
0.108286
0.107498
0.106896
0.10644
0.106121
0.105972
0.106058
0.106428
0.107104
0.108078
0.109324
0.110806
0.112487
0.114332
0.116312
0.118403
0.120589
0.122858
0.125265
0.12782
0.130552
0.133507
0.136729
0.140179
0.143467
0.145637
0.147045
0.148168
0.14923
0.15035
0.151594
0.152965
0.154405
0.15583
0.157197
0.158488
0.159691
0.160797
0.161801
0.162713
0.163569
0.164432
0.165352
0.166359
0.167469
0.168677
0.169973
0.171345
0.17278
0.174272
0.175818
0.17742
0.179082
0.180795
0.182574
0.184454
0.186444
0.188555
0.190803
0.193205
0.195787
0.198572
0.201592
0.204876
0.208461
0.212397
0.216755
0.221635
0.227179
0.233585
0.241138
0.250294
0.26191
0.278209
0.308151
0.3531
0.533673
0.56205
0.562493
0.5625
0.5625
0.5625
0.5625
0.5625
0.5625
0.5625
0.5625
0.5625
0.5625
0.5625
0.5625
0.5625
0.5625
0.5625
0.562499
0.562448
0.558425
0.406114
0.261755
0.255178
0.250155
0.245155
0.239474
0.233609
0.227667
0.222017
0.217284
0.215031
0.0165594
0.0171934
0.0181274
0.0193562
0.0208704
0.022657
0.0247187
0.0269961
0.0294645
0.0322218
0.0350801
0.0380355
0.0411091
0.0443013
0.0476172
0.0510673
0.0546696
0.0584494
0.0624422
0.0666974
0.0723038
0.0796771
0.0893615
0.100143
0.113289
0.12323
0.135731
0.13807
0.137778
0.133952
0.130454
0.127914
0.126916
0.12777
0.131929
0.138129
0.140745
0.140912
0.139661
0.13692
0.132889
0.128793
0.125298
0.12245
0.120042
0.117883
0.115902
0.114159
0.112816
0.112007
0.111776
0.112094
0.11289
0.114085
0.1156
0.11737
0.119344
0.121484
0.123766
0.126181
0.128817
0.131705
0.134925
0.138609
0.142952
0.148042
0.153138
0.155402
0.15656
0.157077
0.157582
0.158265
0.159277
0.160637
0.162476
0.164154
0.16554
0.166794
0.167904
0.168842
0.169579
0.1701
0.170456
0.170814
0.171272
0.171899
0.172716
0.173709
0.174849
0.176107
0.177458
0.178887
0.180386
0.18196
0.183616
0.185365
0.187167
0.189106
0.191189
0.193428
0.195836
0.198433
0.20124
0.204279
0.20757
0.211126
0.214956
0.21909
0.223587
0.228546
0.23412
0.240523
0.248052
0.257187
0.26886
0.285666
0.318729
0.358419
0.539784
0.562074
0.562494
0.5625
0.5625
0.5625
0.5625
0.5625
0.5625
0.5625
0.5625
0.5625
0.5625
0.5625
0.5625
0.5625
0.5625
0.562499
0.562481
0.561037
0.520097
0.335337
0.261998
0.255455
0.250466
0.24549
0.239873
0.234063
0.228162
0.222539
0.21782
0.215566
0.0181506
0.0188585
0.0199119
0.0213075
0.0230338
0.0250704
0.0273992
0.0299562
0.0327081
0.0357138
0.038838
0.0423615
0.0457689
0.0493031
0.0529971
0.0568872
0.0610231
0.0654755
0.0703439
0.0764778
0.0853393
0.0984764
0.114833
0.128017
0.1441
0.14941
0.154016
0.175425
0.180978
0.14503
0.142888
0.141077
0.140624
0.142619
0.150578
0.161786
0.165116
0.167271
0.166853
0.164096
0.157856
0.151074
0.145567
0.14123
0.137433
0.133686
0.129781
0.125839
0.122318
0.119642
0.117973
0.117263
0.117369
0.118127
0.119393
0.121048
0.123004
0.125198
0.127598
0.130197
0.133103
0.136375
0.140159
0.144707
0.150478
0.157638
0.164556
0.166289
0.167117
0.166635
0.166448
0.166606
0.167425
0.16905
0.172715
0.175064
0.176736
0.178046
0.179158
0.18001
0.180506
0.180519
0.180034
0.179559
0.179264
0.179292
0.179678
0.180376
0.181314
0.182428
0.183668
0.185004
0.186422
0.18793
0.189548
0.191296
0.193169
0.195151
0.19732
0.199682
0.202246
0.205029
0.208048
0.211323
0.21486
0.218647
0.222637
0.226837
0.231299
0.236133
0.241539
0.247761
0.255111
0.264077
0.275706
0.293184
0.331752
0.364401
0.540763
0.562055
0.562493
0.5625
0.5625
0.5625
0.5625
0.5625
0.5625
0.5625
0.5625
0.5625
0.5625
0.5625
0.5625
0.5625
0.562479
0.56227
0.558515
0.526859
0.433698
0.299406
0.262085
0.255737
0.250841
0.245916
0.240361
0.234592
0.228713
0.223092
0.218366
0.216103
0.0196761
0.0204828
0.0216986
0.0233268
0.0253541
0.0277442
0.0304454
0.0333796
0.0365043
0.0398432
0.0433262
0.0471317
0.0511976
0.0553678
0.0595952
0.064122
0.0690714
0.074604
0.0809626
0.0915298
0.10661
0.12859
0.149673
0.157885
0.164911
0.296243
0.516145
0.547378
0.518427
0.478449
0.200859
0.152573
0.15159
0.15504
0.169444
0.177172
0.21972
0.361193
0.382162
0.224557
0.168209
0.162946
0.159162
0.156328
0.153534
0.150055
0.145424
0.139633
0.133629
0.12865
0.125198
0.123236
0.122522
0.122782
0.123781
0.125333
0.127299
0.129583
0.132134
0.13495
0.138121
0.141737
0.146002
0.151309
0.158486
0.167073
0.172391
0.185642
0.19443
0.174078
0.173631
0.173421
0.174245
0.177252
0.185168
0.189464
0.191394
0.192868
0.195092
0.196083
0.196531
0.195961
0.193713
0.191646
0.18998
0.188994
0.188742
0.18906
0.189768
0.190728
0.191844
0.19306
0.194347
0.195725
0.197251
0.198963
0.200874
0.202896
0.205128
0.207566
0.210216
0.213097
0.216235
0.219658
0.223384
0.227381
0.231451
0.23558
0.239821
0.244301
0.249356
0.255271
0.262329
0.270988
0.282416
0.300561
0.346521
0.512142
0.560432
0.562465
0.5625
0.5625
0.5625
0.5625
0.5625
0.5625
0.5625
0.5625
0.5625
0.5625
0.5625
0.5625
0.5625
0.5625
0.562481
0.562043
0.553339
0.503578
0.39381
0.268484
0.261734
0.255989
0.251291
0.246458
0.240965
0.235222
0.229313
0.223688
0.21894
0.216649
0.0211283
0.0220648
0.0235022
0.0254619
0.0279301
0.0308366
0.0340678
0.0375164
0.0411308
0.0449158
0.0488544
0.0530568
0.0575371
0.0626277
0.0679721
0.0734974
0.079763
0.0871721
0.0985418
0.119234
0.140744
0.167032
0.175858
0.265435
0.505972
0.554852
0.561743
0.562305
0.561966
0.561345
0.54358
0.224354
0.167329
0.172282
0.191291
0.404378
0.558352
0.56045
0.559727
0.539147
0.209603
0.170485
0.168891
0.168327
0.167519
0.165606
0.161608
0.154491
0.145335
0.137693
0.132413
0.129267
0.127826
0.127688
0.128525
0.13008
0.132156
0.134614
0.137365
0.140413
0.14378
0.147575
0.152037
0.15775
0.166095
0.175252
0.245404
0.541208
0.550742
0.514768
0.232792
0.181947
0.181932
0.185874
0.194877
0.264673
0.515084
0.483446
0.552004
0.561019
0.522312
0.254276
0.200968
0.199471
0.197921
0.196919
0.196804
0.197311
0.198192
0.199285
0.200483
0.201711
0.202928
0.204163
0.205587
0.207265
0.209197
0.21136
0.213648
0.21613
0.218816
0.221741
0.224955
0.228538
0.232584
0.237105
0.241304
0.245297
0.249156
0.253013
0.257611
0.263211
0.269942
0.278132
0.289134
0.307618
0.359285
0.533974
0.561624
0.562485
0.5625
0.5625
0.5625
0.5625
0.5625
0.5625
0.5625
0.5625
0.5625
0.5625
0.5625
0.5625
0.5625
0.5625
0.562491
0.562246
0.552717
0.512088
0.404761
0.268046
0.26186
0.256467
0.251922
0.247179
0.241651
0.235943
0.230038
0.224376
0.219565
0.217206
0.0225033
0.0236058
0.0253474
0.0277963
0.0309458
0.0346494
0.0386608
0.0428264
0.0470932
0.0514709
0.0559894
0.0607487
0.0658505
0.0715802
0.0785852
0.0862209
0.094891
0.106144
0.134769
0.170887
0.189358
0.19988
0.47146
0.549789
0.561157
0.562386
0.562492
0.562498
0.562495