/*--------------------------------*- C++ -*----------------------------------*\
| =========                 |                                                 |
| \\      /  F ield         | OpenFOAM: The Open Source CFD Toolbox           |
|  \\    /   O peration     | Version:  2.1.0                                 |
|   \\  /    A nd           | Web:      www.OpenFOAM.org                      |
|    \\/     M anipulation  |                                                 |
\*---------------------------------------------------------------------------*/
FoamFile
{
    version     2.0;
    format      ascii;
    class       volScalarField;
    location    "56210";
    object      kr_w;
}
// * * * * * * * * * * * * * * * * * * * * * * * * * * * * * * * * * * * * * //

dimensions      [0 0 0 0 0 0 0];

internalField   nonuniform List<scalar> 
15000
(
0.5625
0.5625
0.5625
0.562487
0.562205
0.560302
0.554329
0.543072
0.527684
0.510191
0.492168
0.47451
0.457643
0.441734
0.426824
0.412894
0.399896
0.387772
0.376461
0.365901
0.356033
0.346801
0.338151
0.330035
0.322407
0.315224
0.308448
0.302043
0.295975
0.290215
0.284735
0.279511
0.27452
0.269742
0.265158
0.260752
0.256507
0.252409
0.248445
0.244602
0.240869
0.237236
0.233696
0.230242
0.226866
0.223565
0.220333
0.217166
0.214062
0.211018
0.208032
0.205104
0.202233
0.199418
0.196659
0.193957
0.191312
0.188724
0.186193
0.183719
0.181303
0.178944
0.176641
0.174393
0.1722
0.17006
0.167971
0.165932
0.16394
0.161993
0.160091
0.15823
0.15641
0.154627
0.152881
0.151169
0.149491
0.147844
0.146227
0.144639
0.143079
0.141547
0.14004
0.138559
0.137103
0.135671
0.134263
0.132879
0.131519
0.130183
0.128871
0.127583
0.126319
0.12508
0.123865
0.122676
0.121513
0.120376
0.119267
0.118185
0.117132
0.116108
0.115114
0.114151
0.113219
0.112318
0.111449
0.110613
0.109808
0.109036
0.108296
0.107586
0.106907
0.106256
0.105633
0.105037
0.104465
0.103916
0.103389
0.102881
0.102388
0.101903
0.101417
0.100919
0.100393
0.0998282
0.0992165
0.0985759
0.097966
0.0974638
0.0970823
0.0968057
0.0966071
0.0964089
0.0962087
0.0960044
0.0957938
0.0955751
0.0953471
0.0951074
0.0948521
0.0945753
0.0942687
0.0939204
0.0935134
0.0930223
0.0924034
0.0915728
0.0903227
0.0878275
0.5625
0.5625
0.5625
0.562461
0.561921
0.559153
0.551843
0.539461
0.523516
0.505934
0.488077
0.470686
0.454109
0.438478
0.423821
0.410115
0.397314
0.385361
0.3742
0.363771
0.354019
0.344889
0.336331
0.328297
0.320744
0.31363
0.306917
0.300569
0.294556
0.288846
0.283413
0.278234
0.273285
0.268547
0.264001
0.259631
0.25542
0.251355
0.247423
0.24361
0.239906
0.236301
0.232788
0.22936
0.226009
0.222731
0.219521
0.216376
0.213292
0.210266
0.207298
0.204385
0.201529
0.198727
0.195981
0.19329
0.190654
0.188075
0.185552
0.183086
0.180677
0.178324
0.176028
0.173786
0.171599
0.169465
0.167382
0.165348
0.163361
0.161421
0.159524
0.157669
0.155855
0.154078
0.152337
0.150631
0.148957
0.147315
0.145704
0.144121
0.142566
0.141037
0.139535
0.138058
0.136605
0.135176
0.133771
0.13239
0.131032
0.129697
0.128386
0.127099
0.125834
0.124593
0.123375
0.122182
0.121014
0.119871
0.118753
0.117662
0.116597
0.115559
0.114549
0.113566
0.112611
0.111684
0.110784
0.109911
0.109064
0.108242
0.107443
0.106666
0.105908
0.105167
0.104439
0.103724
0.103019
0.102325
0.101642
0.100966
0.100291
0.0996006
0.0988696
0.0980616
0.0971289
0.0960183
0.0946928
0.0931895
0.0917359
0.0906867
0.0900113
0.0896216
0.0894364
0.0893266
0.0892872
0.0893039
0.0893456
0.0894001
0.0894757
0.0895877
0.0897432
0.0899322
0.0901335
0.090318
0.0904519
0.0904973
0.0904045
0.0900869
0.0893371
0.0873308
0.5625
0.5625
0.562489
0.56231
0.561054
0.556646
0.547408
0.533728
0.517324
0.499841
0.482346
0.465399
0.449262
0.434036
0.419737
0.406343
0.393813
0.382097
0.371141
0.360892
0.351299
0.342311
0.333881
0.325963
0.318515
0.311498
0.304874
0.298611
0.292675
0.287039
0.281675
0.276561
0.271674
0.266995
0.262506
0.25819
0.254031
0.250016
0.24613
0.242362
0.238701
0.235138
0.231665
0.228274
0.22496
0.221715
0.218537
0.215421
0.212364
0.209364
0.206419
0.203528
0.20069
0.197905
0.195174
0.192497
0.189874
0.187306
0.184793
0.182336
0.179935
0.17759
0.175302
0.173068
0.170888
0.168761
0.166686
0.164659
0.162681
0.160749
0.15886
0.157013
0.155206
0.153437
0.151705
0.150006
0.14834
0.146706
0.145101
0.143525
0.141977
0.140455
0.138958
0.137487
0.136039
0.134614
0.133213
0.131834
0.130478
0.129145
0.127834
0.126546
0.12528
0.124036
0.122814
0.121616
0.120441
0.119289
0.118161
0.117056
0.115976
0.11492
0.113889
0.112881
0.111896
0.110934
0.109994
0.109073
0.10817
0.107283
0.106407
0.10554
0.104675
0.103807
0.102931
0.102042
0.101136
0.100211
0.0992729
0.0983249
0.0973614
0.0963554
0.0952563
0.0939885
0.0924501
0.0905185
0.0880896
0.0851771
0.0823761
0.0808087
0.0799426
0.0795033
0.0793453
0.0793887
0.0796372
0.0800641
0.0805456
0.0810424
0.0815904
0.0822461
0.0830385
0.0839423
0.0849084
0.0858731
0.0867721
0.0875459
0.0881336
0.0884458
0.0882768
0.0868044
0.562488
0.562464
0.562317
0.561533
0.558652
0.551828
0.540514
0.525792
0.509245
0.492125
0.475188
0.458838
0.443264
0.428541
0.414683
0.401672
0.389473
0.378044
0.367339
0.357312
0.347915
0.339103
0.330831
0.323058
0.315743
0.308849
0.30234
0.296184
0.290349
0.284808
0.279534
0.274506
0.2697
0.265099
0.260683
0.256437
0.252346
0.248396
0.244572
0.240864
0.23726
0.233752
0.230332
0.22699
0.223723
0.220523
0.217386
0.214308
0.211286
0.208318
0.205402
0.202537
0.199722
0.196958
0.194245
0.191584
0.188975
0.186419
0.183917
0.181471
0.179079
0.176744
0.174463
0.172238
0.170068
0.16795
0.165884
0.163867
0.161899
0.159977
0.158099
0.156262
0.154465
0.152707
0.150984
0.149295
0.147639
0.146014
0.144419
0.142852
0.141312
0.139798
0.138309
0.136843
0.135401
0.133982
0.132585
0.13121
0.129857
0.128525
0.127215
0.125925
0.124657
0.12341
0.122183
0.120978
0.119794
0.118632
0.11749
0.11637
0.115272
0.114194
0.113136
0.112097
0.111077
0.110073
0.109084
0.108106
0.107135
0.106168
0.105197
0.104215
0.103213
0.102179
0.1011
0.0999605
0.0987472
0.0974535
0.0960928
0.0947131
0.0933299
0.0919053
0.0903554
0.0885554
0.0863393
0.0835031
0.0798489
0.0752239
0.0709404
0.0695944
0.0689155
0.0685748
0.0684502
0.068621
0.0691517
0.0700803
0.0710329
0.0719273
0.0728764
0.0740306
0.0754772
0.0771628
0.0790015
0.0808811
0.0826854
0.0843158
0.0856902
0.0867115
0.0871745
0.0862596
0.562235
0.56197
0.561137
0.558751
0.553329
0.54396
0.531063
0.515865
0.499581
0.483071
0.466855
0.451212
0.436285
0.422135
0.408775
0.396196
0.384372
0.37327
0.362852
0.353078
0.343907
0.335297
0.32721
0.319607
0.312449
0.3057
0.299329
0.293301
0.287588
0.282163
0.276999
0.272074
0.267367
0.26286
0.258535
0.254376
0.250368
0.246497
0.24275
0.239116
0.235584
0.232144
0.228788
0.225509
0.2223
0.219155
0.216069
0.213038
0.210059
0.20713
0.204249
0.201414
0.198627
0.195887
0.193195
0.190551
0.187958
0.185416
0.182926
0.18049
0.178109
0.175783
0.173513
0.171297
0.169136
0.167029
0.164974
0.16297
0.161014
0.159104
0.157238
0.155414
0.15363
0.151883
0.150173
0.148497
0.146852
0.145239
0.143655
0.142099
0.140569
0.139065
0.137585
0.136128
0.134694
0.133281
0.131889
0.130518
0.129168
0.127838
0.126528
0.125238
0.123967
0.122716
0.121483
0.12027
0.119076
0.117901
0.116745
0.115607
0.114486
0.113383
0.112295
0.111221
0.11016
0.109108
0.108061
0.107017
0.105967
0.104906
0.103822
0.102702
0.10153
0.100282
0.0989278
0.0974302
0.0957478
0.0938491
0.091776
0.0897565
0.0878572
0.0860073
0.0840679
0.0818593
0.0791615
0.0757121
0.0712429
0.0652005
0.0604885
0.0603225
0.0598905
0.0596951
0.0595768
0.0597081
0.0602641
0.0616338
0.0628862
0.0638587
0.0648479
0.0661625
0.0680281
0.0703326
0.0729496
0.0757339
0.0784794
0.0810136
0.0832141
0.0849698
0.0860743
0.0857106
0.560533
0.55945
0.55703
0.552251
0.544274
0.533088
0.519461
0.50439
0.488711
0.472996
0.457599
0.442728
0.428495
0.414954
0.402125
0.390008
0.378587
0.367838
0.35773
0.348232
0.339309
0.330924
0.323042
0.315628
0.308646
0.302065
0.29585
0.289971
0.284399
0.279108
0.274071
0.269268
0.264677
0.26028
0.256061
0.252003
0.248094
0.244317
0.240662
0.237116
0.233669
0.230311
0.227033
0.223829
0.22069
0.217611
0.214586
0.211612
0.208684
0.205801
0.202961
0.200163
0.197407
0.194694
0.192025
0.189401
0.186824
0.184297
0.181819
0.179395
0.177024
0.174708
0.172447
0.170242
0.168093
0.165998
0.163955
0.161964
0.160022
0.158127
0.156275
0.154466
0.152697
0.150966
0.14927
0.147608
0.145978
0.144379
0.142808
0.141265
0.139748
0.138256
0.136787
0.13534
0.133914
0.132509
0.131124
0.129758
0.128412
0.127083
0.125774
0.124483
0.12321
0.121954
0.120715
0.119493
0.118288
0.117099
0.115925
0.114767
0.113622
0.112491
0.111369
0.110257
0.109149
0.108044
0.106934
0.105815
0.104676
0.103507
0.102292
0.101009
0.0996296
0.0981105
0.0963923
0.0943938
0.0920114
0.0891316
0.0858545
0.0830393
0.0807034
0.0786277
0.0765723
0.074305
0.0715845
0.068149
0.0637451
0.0572167
0.0549463
0.0505778
0.046837
0.0430298
0.0409213
0.042625
0.0477288
0.0586919
0.0594641
0.0597902
0.0601578
0.0609012
0.0625162
0.064837
0.0676937
0.0710874
0.074615
0.0779511
0.0809025
0.0833334
0.0850306
0.0851745
0.555159
0.552773
0.548429
0.541534
0.531914
0.519962
0.50638
0.491878
0.477017
0.46219
0.447655
0.433574
0.420045
0.407124
0.394838
0.383195
0.372189
0.361806
0.352022
0.342814
0.334152
0.326005
0.318343
0.311134
0.304346
0.297947
0.291907
0.286194
0.280782
0.275642
0.27075
0.266084
0.261625
0.257353
0.253255
0.249314
0.245516
0.241848
0.238298
0.234855
0.231508
0.228246
0.225061
0.221945
0.218889
0.215888
0.212936
0.210028
0.20716
0.204331
0.201539
0.198782
0.196062
0.193379
0.190736
0.188133
0.185574
0.183061
0.180596
0.178182
0.175821
0.173515
0.171264
0.16907
0.166932
0.16485
0.162822
0.160846
0.15892
0.157041
0.155207
0.153415
0.151663
0.149949
0.14827
0.146625
0.145012
0.143429
0.141874
0.140347
0.138845
0.137367
0.135911
0.134476
0.133062
0.131666
0.130288
0.128929
0.127586
0.126261
0.124952
0.123661
0.122385
0.121125
0.119879
0.118647
0.11743
0.116226
0.115034
0.113853
0.112683
0.11152
0.110363
0.109208
0.108051
0.106887
0.105709
0.104507
0.10327
0.10198
0.100616
0.0991432
0.0975153
0.0956621
0.0934806
0.0908205
0.0874603
0.0830692
0.0778065
0.0743863
0.0720158
0.0701229
0.0683538
0.0664603
0.0642316
0.0614725
0.0580158
0.0518442
0.0387455
0.00150111
6.90534e-05
1.43924e-06
0.000830441
0.0194901
0.0187363
0.0183032
0.0223969
0.0269349
0.0351976
0.0450742
0.0596231
0.0615111
0.0638402
0.0675253
0.0715803
0.0754707
0.0789655
0.0819169
0.0840965
0.0846674
0.544937
0.541387
0.535664
0.527616
0.517419
0.505524
0.492477
0.47878
0.464825
0.450904
0.437219
0.42391
0.41107
0.398757
0.387005
0.375832
0.36524
0.355223
0.345767
0.336853
0.328457
0.320557
0.313124
0.30613
0.299547
0.293345
0.287494
0.281965
0.276728
0.271756
0.267025
0.262512
0.258199
0.254067
0.250103
0.246291
0.242619
0.239075
0.235646
0.232321
0.229089
0.225939
0.222862
0.219848
0.21689
0.21398
0.211113
0.208282
0.205485
0.202719
0.199981
0.197272
0.194593
0.191943
0.189327
0.186747
0.184206
0.181707
0.179254
0.17685
0.174498
0.172201
0.16996
0.167776
0.16565
0.163581
0.161568
0.159609
0.157701
0.155841
0.154027
0.152255
0.150523
0.148828
0.147169
0.145543
0.143949
0.142385
0.140849
0.13934
0.137856
0.136394
0.134954
0.133534
0.132132
0.130748
0.12938
0.128028
0.126691
0.125369
0.124062
0.122769
0.121491
0.120226
0.118973
0.117731
0.116501
0.115281
0.11407
0.112866
0.111668
0.110473
0.109277
0.108077
0.106868
0.105641
0.104389
0.103098
0.101753
0.10033
0.0987965
0.0971063
0.0951892
0.0929416
0.0902087
0.0867541
0.0821787
0.0757134
0.0674681
0.0643659
0.0625523
0.0612214
0.0600256
0.0587845
0.0573587
0.055627
0.0534642
0.0473847
0.0311529
0.00847906
0.000454525
1.4176e-05
6.23421e-06
0.000416856
0.000565596
0.000733113
0.00114105
0.00143614
0.0190567
0.0228873
0.0420393
0.0531329
0.0629337
0.0663304
0.0700452
0.0738879
0.0775542
0.0807944
0.0833057
0.0842001
0.530844
0.526646
0.520332
0.511999
0.50194
0.490556
0.478267
0.465445
0.452389
0.439334
0.426451
0.413869
0.401679
0.389943
0.378702
0.367981
0.35779
0.34813
0.338994
0.330369
0.322238
0.314583
0.307381
0.300608
0.294239
0.288244
0.282596
0.277264
0.272219
0.267432
0.262877
0.258533
0.254379
0.250401
0.246583
0.242914
0.239381
0.235975
0.232682
0.229492
0.226392
0.223372
0.220419
0.217525
0.214681
0.211877
0.209109
0.20637
0.203654
0.200961
0.198286
0.195632
0.192997
0.190385
0.187798
0.185241
0.182718
0.180233
0.17779
0.175395
0.17305
0.170759
0.168526
0.166351
0.164236
0.162181
0.160185
0.158244
0.156357
0.154519
0.152728
0.150978
0.149269
0.147597
0.14596
0.144356
0.142784
0.141241
0.139727
0.138239
0.136775
0.135333
0.133912
0.132509
0.131123
0.129753
0.128396
0.127053
0.125723
0.124405
0.1231
0.121807
0.120527
0.119258
0.117998
0.116746
0.115503
0.114266
0.113035
0.111807
0.11058
0.10935
0.108114
0.106866
0.1056
0.104307
0.102975
0.101588
0.100124
0.0985538
0.0968325
0.0948969
0.0926538
0.0899668
0.0866342
0.0823412
0.0764951
0.0677506
0.05627
0.0543783
0.0530668
0.0522568
0.0516533
0.05122
0.0507636
0.0502293
0.0495266
0.042057
0.0208007
0.00368959
0.000218287
7.29075e-06
2.36541e-07
8.34126e-06
1.48696e-05
2.44412e-05
4.07161e-05
4.71645e-05
0.0011089
0.00139302
0.00497747
0.0504487
0.0627481
0.0658765
0.0692897
0.072947
0.0765946
0.0799519
0.0826596
0.0837754
0.514752
0.510355
0.503997
0.495877
0.486293
0.475589
0.464098
0.452118
0.439894
0.427627
0.415473
0.403553
0.391958
0.380754
0.369988
0.359689
0.349875
0.340552
0.331719
0.32337
0.315494
0.308076
0.3011
0.294547
0.288392
0.282612
0.277178
0.272058
0.267221
0.262636
0.258275
0.254114
0.250134
0.24632
0.242661
0.239146
0.235767
0.232514
0.229375
0.226338
0.22339
0.220519
0.217711
0.214955
0.212243
0.209564
0.206912
0.204279
0.201659
0.19905
0.196449
0.193856
0.191272
0.188701
0.186146
0.183613
0.181107
0.178634
0.1762
0.173809
0.171468
0.169181
0.166952
0.164785
0.16268
0.160638
0.158659
0.15674
0.154876
0.153063
0.151298
0.149575
0.147891
0.146244
0.144632
0.143052
0.141505
0.139987
0.138497
0.137034
0.135595
0.134177
0.132778
0.131396
0.130029
0.128675
0.127332
0.126
0.124678
0.123367
0.122064
0.120771
0.11949
0.118217
0.116951
0.115689
0.114432
0.113178
0.111926
0.110672
0.109413
0.108147
0.106868
0.10557
0.104244
0.102879
0.101461
0.0999697
0.098377
0.0966439
0.0947143
0.0925086
0.0899136
0.0867689
0.082844
0.0777824
0.0708656
0.0604539
0.0484921
0.0361265
0.0282553
0.0196598
0.00935627
0.00322625
0.00405861
0.00955055
0.0285407
0.0261994
0.00836419
0.000406901
1.72306e-05
5.54203e-07
1.44059e-08
1.76047e-07
3.86063e-07
7.53461e-07
1.23611e-06
1.36911e-06
3.66175e-05
4.99939e-05
0.000322695
0.0597295
0.0628136
0.0656414
0.0689768
0.0724069
0.0759556
0.0793305
0.0821365
0.0833887
0.498174
0.493835
0.487697
0.479981
0.470966
0.460942
0.45019
0.43896
0.427465
0.415887
0.404371
0.393035
0.381969
0.371242
0.360903
0.350988
0.341517
0.332501
0.323946
0.31585
0.308207
0.301009
0.294245
0.2879
0.281957
0.276393
0.271181
0.266288
0.261678
0.257315
0.253166
0.249204
0.245411
0.241772
0.238282
0.234934
0.231723
0.22864
0.225675
0.222813
0.220039
0.21734
0.2147
0.212107
0.20955
0.207018
0.204502
0.201994
0.199488
0.196978
0.194462
0.19194
0.189414
0.186888
0.184367
0.181858
0.179369
0.176905
0.174475
0.172086
0.169744
0.167455
0.165226
0.163061
0.160956
0.158918
0.156951
0.155054
0.153218
0.151435
0.149699
0.148006
0.146352
0.144734
0.143149
0.141598
0.140079
0.13859
0.137131
0.135697
0.134288
0.1329
0.13153
0.130174
0.128831
0.127497
0.126172
0.124855
0.123544
0.12224
0.120942
0.119651
0.118366
0.11709
0.115817
0.114545
0.113275
0.112003
0.110728
0.109447
0.108157
0.106853
0.105528
0.104176
0.102786
0.101345
0.0998344
0.098229
0.0964942
0.0945819
0.0924253
0.0899322
0.0869764
0.083386
0.078921
0.0732047
0.0654001
0.0537067
0.0430614
0.0223021
0.00466038
0.00011964
1.24893e-06
1.1452e-05
0.000346507
0.000575482
0.000303427
0.00224437
0.00065799
4.09796e-05
1.5744e-06
4.56865e-08
1.08714e-09
3.98984e-09
1.06919e-08
2.34911e-08
3.39141e-08
3.20902e-08
7.68599e-07
8.60433e-07
0.00529478
0.0600579
0.0628096
0.065463
0.0686981
0.0720571
0.0755115
0.0788627
0.0817062
0.0830318
0.482002
0.477825
0.471987
0.464702
0.456219
0.446794
0.436669
0.426066
0.41518
0.404179
0.393201
0.382361
0.371749
0.361435
0.35147
0.34189
0.332719
0.323973
0.315659
0.307781
0.300338
0.293328
0.286748
0.28059
0.274842
0.269489
0.264504
0.259853
0.255493
0.251378
0.247465
0.243722
0.240129
0.236679
0.233368
0.230199
0.22717
0.224276
0.221506
0.218845
0.216275
0.213778
0.211335
0.208933
0.206559
0.204201
0.201848
0.199491
0.19712
0.194729
0.192314
0.189875
0.187416
0.18494
0.182456
0.179971
0.177495
0.175037
0.172607
0.170212
0.167862
0.165565
0.163328
0.161138
0.159016
0.156971
0.155008
0.15313
0.151327
0.149581
0.147883
0.146228
0.144609
0.143025
0.141473
0.139954
0.138468
0.137013
0.135589
0.134192
0.13282
0.131468
0.130134
0.128812
0.127499
0.126192
0.12489
0.123591
0.122295
0.121002
0.119711
0.118423
0.117138
0.11586
0.114582
0.113301
0.112017
0.110727
0.10943
0.108121
0.106797
0.105452
0.10408
0.10267
0.101211
0.0996856
0.0980719
0.0963395
0.0944474
0.0923401
0.0899436
0.0871591
0.0838572
0.0798664
0.0749477
0.0687024
0.0601234
0.0473056
0.0392786
0.0105245
0.000142979
1.41318e-06
1.4471e-08
2.19161e-08
3.65286e-06
1.07568e-05
1.06088e-05
9.52053e-05
3.47738e-05
1.8753e-06
7.08892e-08
2.13842e-09
5.56329e-11
9.528e-11
3.41519e-10
8.22264e-10
8.51365e-10
6.30274e-10
1.10358e-08
0.000231447
0.0270543
0.0600032
0.0627201
0.0653113
0.0684507
0.0717585
0.0751811
0.0784949
0.0813404
0.0826963
0.466679
0.462686
0.457133
0.450222
0.442177
0.433228
0.423596
0.413484
0.403075
0.39253
0.381984
0.371548
0.36131
0.351339
0.341686
0.332386
0.323466
0.31494
0.306818
0.29911
0.291818
0.284948
0.278504
0.272489
0.266902
0.261739
0.256979
0.252588
0.24851
0.244679
0.241036
0.23754
0.234168
0.230917
0.227795
0.224814
0.221982
0.219299
0.216753
0.214328
0.211999
0.209742
0.207536
0.205363
0.203208
0.20106
0.198906
0.196732
0.194526
0.19228
0.189987
0.187648
0.185265
0.182847
0.180402
0.177942
0.175478
0.173021
0.170583
0.168175
0.165806
0.163489
0.161201
0.158974
0.156823
0.15476
0.152797
0.150937
0.149173
0.147474
0.145824
0.144214
0.142637
0.141091
0.139575
0.138092
0.136642
0.135226
0.133842
0.132489
0.131162
0.129856
0.128566
0.127287
0.126013
0.124741
0.123468
0.122192
0.120915
0.119635
0.118355
0.117073
0.115789
0.114507
0.113226
0.111938
0.110641
0.109334
0.108014
0.106676
0.105316
0.103927
0.1025
0.101025
0.0994861
0.0978641
0.0961329
0.094258
0.092194
0.0898819
0.0872453
0.084187
0.0805832
0.0762711
0.0710152
0.0643764
0.0550719
0.0409255
0.0358694
0.00359263
9.82369e-05
1.86758e-06
2.43086e-08
3.28436e-10
3.60863e-08
1.60078e-07
2.50494e-07
2.52052e-06
9.57872e-07
5.36907e-08
2.0725e-09
6.57893e-11
1.9104e-12
2.1539e-12
1.40978e-11
1.13673e-10
3.392e-09
2.20747e-07
1.80512e-05
0.00154236
0.0362692
0.0599068
0.0626161
0.0651832
0.0682554
0.0715021
0.0748815
0.0781808
0.0810171
0.0823747
0.452395
0.448565
0.443241
0.43661
0.428883
0.420271
0.410984
0.401217
0.391149
0.380937
0.370712
0.360583
0.350635
0.340934
0.331527
0.322446
0.313715
0.305348
0.297357
0.289751
0.282537
0.275729
0.26934
0.263388
0.257778
0.252623
0.248069
0.243959
0.240219
0.23675
0.233456
0.230271
0.227167
0.224145
0.221229
0.218454
0.215845
0.213409
0.211138
0.209007
0.206985
0.205034
0.203127
0.201242
0.199365
0.197484
0.195582
0.193643
0.191649
0.189587
0.187448
0.185231
0.182942
0.180591
0.178191
0.175755
0.1733
0.170838
0.168384
0.16595
0.163549
0.161171
0.15882
0.156524
0.154304
0.152185
0.150194
0.148347
0.146636
0.144998
0.143411
0.14186
0.140334
0.138833
0.137359
0.135916
0.134509
0.133139
0.131805
0.130506
0.129238
0.127993
0.126765
0.125543
0.124322
0.123096
0.121862
0.120619
0.119367
0.118107
0.11684
0.115568
0.11429
0.113006
0.111724
0.110429
0.10912
0.107794
0.106447
0.105076
0.103673
0.102231
0.100739
0.0991857
0.0975526
0.0958179
0.0939534
0.0919229
0.0896803
0.0871675
0.0843122
0.0810255
0.0771947
0.0726697
0.0672194
0.0603593
0.0505018
0.0354635
0.0150531
0.00155034
3.12568e-05
4.89284e-07
6.03228e-09
6.10892e-11
3.15485e-10
1.89657e-09
4.15787e-09
4.46446e-08
1.68625e-08
1.03384e-09
4.15702e-11
1.3535e-12
3.91815e-14
2.15213e-14
4.09602e-13
8.34281e-11
8.94931e-09
5.79504e-07
3.31365e-05
0.00156704
0.0442326
0.059894
0.0625551
0.06509
0.0680975
0.0712859
0.074618
0.0778852
0.080704
0.0820579
0.439212
0.435505
0.430333
0.423874
0.416329
0.407905
0.398807
0.389234
0.379363
0.369355
0.359338
0.349419
0.339676
0.330169
0.320936
0.312006
0.303394
0.295112
0.287167
0.279567
0.272323
0.265452
0.258793
0.252055
0.245531
0.239482
0.234318
0.23065
0.227538
0.224798
0.222216
0.219661
0.217074
0.214463
0.211891
0.209443
0.207191
0.205166
0.203359
0.201737
0.200244
0.198816
0.197405
0.195985
0.194545
0.193075
0.191559
0.189974
0.188296
0.186504
0.184585
0.182542
0.180381
0.17812
0.175776
0.173371
0.170923
0.168451
0.165971
0.163497
0.161044
0.158566
0.156103
0.153672
0.151298
0.149026
0.146928
0.145068
0.14343
0.141885
0.140395
0.13893
0.137477
0.136033
0.134608
0.133214
0.131859
0.130548
0.129281
0.128057
0.126871
0.125716
0.124578
0.123445
0.122304
0.121148
0.119972
0.118776
0.117562
0.116331
0.115087
0.113831
0.112564
0.111286
0.110002
0.108705
0.107385
0.106038
0.104661
0.103248
0.101793
0.100285
0.098714
0.0970652
0.0953206
0.0934579
0.0914496
0.0892612
0.0868501
0.0841641
0.0811395
0.0776977
0.0737386
0.0691235
0.063623
0.0567061
0.0465141
0.0316784
0.0077646
0.000886758
1.84107e-05
2.91572e-07
3.69152e-09
3.90177e-11
2.74222e-12
1.80469e-11
5.06782e-11
5.6342e-10
2.10256e-10
1.41231e-11
5.95149e-13
1.92764e-14
3.17516e-18
0
6.19157e-15
1.27965e-11
1.92175e-08
7.18161e-07
2.69091e-05
0.000776871
0.0567995
0.0600972
0.0625619
0.0650267
0.0679607
0.0710901
0.0743727
0.077602
0.0803941
0.0817414
0.427128
0.423498
0.418392
0.411987
0.404479
0.39608
0.387004
0.377458
0.367635
0.357698
0.347776
0.337969
0.328346
0.318955
0.309823
0.300966
0.292391
0.284097
0.276085
0.268354
0.260909
0.253417
0.245368
0.237066
0.228453
0.22011
0.212635
0.208912
0.20684
0.205493
0.2043
0.202957
0.201309
0.199359
0.197252
0.195216
0.193465
0.192081
0.191063
0.190361
0.189867
0.189428
0.188944
0.188374
0.187718
0.186977
0.186139
0.185175
0.184042
0.182708
0.181157
0.179394
0.177438
0.175317
0.173062
0.170704
0.168271
0.165787
0.163271
0.16074
0.158185
0.155568
0.152913
0.150223
0.147517
0.144862
0.142438
0.140496
0.138968
0.137588
0.136268
0.134952
0.133614
0.132254
0.130893
0.12956
0.128274
0.127043
0.125871
0.124759
0.123703
0.122692
0.121707
0.120722
0.119718
0.118679
0.1176
0.116482
0.11533
0.114149
0.112943
0.111717
0.110472
0.109208
0.107923
0.10663
0.105302
0.103934
0.102523
0.101062
0.0995434
0.0979584
0.0962946
0.0945377
0.092671
0.0906752
0.0885278
0.0862005
0.0836581
0.0808563
0.0777399
0.0742394
0.0702631
0.065678
0.0602503
0.0533968
0.0429964
0.0290562
0.00379175
0.000209565
4.71131e-06
7.42211e-08
9.40716e-10
1.01858e-11
1.13995e-13
1.41695e-13
4.73541e-13
5.33365e-12
1.96719e-12
1.43403e-13
5.59464e-15
0
0
0
0
1.79707e-12
3.62817e-08
1.87739e-06
7.69127e-05
0.00263912
0.057205
0.0601658
0.0625266
0.0649463
0.0678184
0.0708948
0.0741307
0.0773217
0.0800846
0.0814244
0.416099
0.41248
0.407348
0.400881
0.39329
0.384784
0.375469
0.365765
0.355826
0.345822
0.335882
0.326093
0.316509
0.307157
0.298048
0.289178
0.280536
0.272104
0.263863
0.25579
0.247647
0.238138
0.227503
0.215817
0.202918
0.191047
0.179081
0.175098
0.174548
0.175789
0.177128
0.177933
0.177813
0.176697
0.174671
0.171579
0.170308
0.169785
0.170024
0.170964
0.172401
0.173902
0.175195
0.176213
0.176994
0.177589
0.178008
0.178202
0.17809
0.177605
0.176724
0.175463
0.173866
0.171989
0.169889
0.167618
0.165219
0.162728
0.160171
0.157564
0.154848
0.152024
0.149065
0.145934
0.1426
0.139119
0.135883
0.13379
0.132451
0.131392
0.130398
0.129358
0.128213
0.126963
0.125663
0.12439
0.12318
0.122049
0.121004
0.120051
0.119191
0.118416
0.117693
0.116969
0.116202
0.115366
0.114454
0.113468
0.112419
0.111319
0.110179
0.109006
0.107803
0.10657
0.105304
0.104015
0.102691
0.101309
0.099866
0.0983556
0.0967709
0.0951026
0.09334
0.0914711
0.0894842
0.0873677
0.0851091
0.0826903
0.0800845
0.0772541
0.0741472
0.0706969
0.066813
0.0623611
0.0570953
0.0503653
0.0397486
0.0272603
0.00193204
2.75244e-05
4.03434e-07
5.63321e-09
6.96115e-11
7.65726e-13
7.09649e-15
3.17516e-18
1.9686e-15
3.93276e-14
1.3885e-14
3.17516e-18
0
0
0
0
0
8.17337e-10
4.27438e-08
3.18316e-06
0.000252207
0.0165481
0.0571628
0.0600968
0.062427
0.0648259
0.0676517
0.070684
0.0738792
0.0770364
0.0797734
0.0811066
0.406047
0.402344
0.397048
0.390348
0.382477
0.37368
0.36412
0.354209
0.344145
0.333634
0.323449
0.313588
0.303967
0.29458
0.285409
0.276423
0.267582
0.258835
0.250122
0.241369
0.230568
0.217448
0.20178
0.186061
0.168896
0.157141
0.143624
0.141236
0.141532
0.145469
0.14917
0.151921
0.153017
0.152079
0.147597
0.141177
0.138556
0.138391
0.139636
0.142404
0.146583
0.150963
0.154812
0.158029
0.160807
0.163344
0.165713
0.167829
0.16948
0.170485
0.170773
0.170377
0.169389
0.16792
0.166077
0.163954
0.161622
0.159137
0.156534
0.15383
0.150936
0.147835
0.144457
0.140692
0.136385
0.13151
0.126806
0.124771
0.123742
0.123286
0.122842
0.122244
0.121363
0.120188
0.118617
0.117202
0.116045
0.115008
0.114098
0.113333
0.112737
0.112317
0.112031
0.111744
0.111377
0.110877
0.11023
0.109448
0.108556
0.10758
0.106541
0.105452
0.104321
0.103146
0.101923
0.100647
0.0993464
0.097965
0.0965005
0.0949495
0.0933066
0.0915642
0.0897141
0.087749
0.0856653
0.0834644
0.0811508
0.0787187
0.0761472
0.0733988
0.070415
0.0671222
0.0634259
0.0591868
0.0541356
0.0475217
0.0364711
0.0260108
0.00149231
2.60339e-05
3.77184e-07
4.85561e-09
5.55512e-11
5.70567e-13
4.60716e-15
0
0
0
0
0
0
0
0
0
0
7.25944e-08
1.14445e-06
8.97726e-05
0.00297314
0.031762
0.057057
0.0599705
0.0622805
0.0646626
0.0674498
0.0704453
0.0736082
0.0767397
0.0794587
0.0807881
0.396919
0.393027
0.387412
0.380277
0.371888
0.362547
0.35252
0.342217
0.331853
0.321281
0.311017
0.300215
0.290452
0.280951
0.271622
0.262388
0.253161
0.24383
0.234256
0.223001
0.208092
0.188385
0.167007
0.151808
0.13527
0.130231
0.126013
0.108108
0.103878
0.134373
0.136447
0.138227
0.138677
0.13671
0.129147
0.119204
0.116398
0.114616
0.114959
0.117251
0.122601
0.128691
0.133857
0.138077
0.141882
0.145747
0.149894
0.15421
0.15818
0.161273
0.163237
0.164081
0.163955
0.163055
0.161565
0.159639
0.157398
0.154923
0.152267
0.149446
0.146358
0.142963
0.139139
0.134684
0.12924
0.122792
0.116865
0.115425
0.114743
0.115139
0.115293
0.115163
0.11449
0.113165
0.11023
0.108388
0.107095
0.106091
0.105247
0.104604
0.104231
0.104221
0.104586
0.104944
0.105166
0.105145
0.104854
0.104329
0.103627
0.102799
0.101885
0.100909
0.099882
0.0988007
0.0976523
0.0964264
0.0951276
0.0937711
0.0923067
0.0907364
0.089059
0.0872705
0.0853664
0.0833441
0.0812082
0.0789764
0.0766839
0.0743357
0.0719111
0.0693645
0.0666121
0.0635653
0.0601275
0.0561576
0.0513519
0.0447931
0.0327358
0.0246562
0.00142346
2.7255e-05
4.12093e-07
5.29082e-09
5.93355e-11
5.94057e-13
4.75322e-15
0
0
0
0
0
0
0
0
0
1.26777e-06
1.40938e-05
0.000246546
0.00244312
0.0122805
0.0426356
0.0570191
0.0598423
0.0621042
0.0644556
0.0672038
0.0701678
0.0733077
0.0764261
0.0791398
0.0804694
0.388651
0.384453
0.378336
0.370509
0.36129
0.351089
0.340323
0.329426
0.318618
0.307856
0.297387
0.286717
0.276095
0.265927
0.256282
0.246605
0.2367
0.226351
0.215272
0.198484
0.177367
0.151184
0.129986
0.122576
0.116569
0.0437212
0.00329386
0.00096931
0.0031077
0.00680744
0.0899631
0.12732
0.128217
0.125094
0.112846
0.10676
0.0783537
0.0253762
0.0209324
0.0756024
0.113848
0.118219
0.121462
0.123947
0.126448
0.129632
0.133995
0.139664
0.145806
0.151118
0.154924
0.157134
0.157947
0.15765
0.156517
0.154773
0.152596
0.150107
0.14738
0.14443
0.141184
0.137576
0.133442
0.128475
0.12205
0.114779
0.110487
0.100446
0.0942627
0.109158
0.109508
0.109673
0.109027
0.106699
0.10079
0.0977122
0.0963581
0.0953355
0.0938113
0.0931394
0.0928371
0.0932223
0.0947535
0.0961823
0.097348
0.0980443
0.0982233
0.0979974
0.0974972
0.0968233
0.0960442
0.0952031
0.094319
0.0933818
0.0923535
0.0912121
0.0899532
0.0886382
0.0872072
0.0856681
0.0840226
0.0822664
0.0803916
0.0783898
0.0762614
0.0740361
0.0718299
0.069652
0.0674762
0.0652442
0.062805
0.0600544
0.0569129
0.0532568
0.0487436
0.0422447
0.0288672
0.00362723
0.000127199
2.15615e-06
3.05298e-08
3.71109e-10
3.96997e-12
3.81401e-14
0
0
0
0
0
0
0
0
0
0
1.18891e-06
2.79889e-05
0.000576147
0.00437026
0.0187147
0.0542924
0.0571721
0.059728
0.0618929
0.0641932
0.0668996
0.0698381
0.0729812
0.0760901
0.078806
0.0801471
0.381175
0.376541
0.369689
0.360815
0.350323
0.338824
0.326979
0.315275
0.303901
0.292838
0.282125
0.271476
0.2609
0.24973
0.238844
0.228365
0.217301
0.205183
0.188293
0.161751
0.138557
0.114813
0.107772
0.0555772
0.00415839
0.000478658
4.63804e-05
1.19128e-05
3.27139e-05
7.08465e-05
0.00122769
0.0757161
0.114568
0.110573
0.0964298
0.0168432
0.000256776
0.000126048
0.000170903
0.00153734
0.084401
0.112007
0.113294
0.113752
0.114413
0.11599
0.119356
0.125586
0.13408
0.141618
0.147085
0.150449
0.152017
0.152168
0.151254
0.149572
0.147356
0.14478
0.141951
0.138886
0.13558
0.13195
0.127808
0.122695
0.115585
0.108242
0.0647046
0.00139228
0.00074564
0.00340751
0.0711159
0.103156
0.103167
0.100278
0.093958
0.055902
0.00338135
0.00629026
0.000662931
9.09237e-05
0.00279695
0.0605094
0.0898913
0.0908754
0.0919048
0.0925764
0.0926532
0.092313
0.0917244
0.0909989
0.0902095
0.0894066
0.0886179
0.0878233
0.0869158
0.085857
0.0846523
0.0833214
0.0819343
0.0804536
0.0788777
0.0771937
0.0753797
0.0734032
0.0712265
0.0688622
0.0667301
0.0647567
0.0629
0.0610914
0.0589963
0.0565309
0.0536871
0.0503952
0.0462462
0.0399198
0.0258115
0.00190991
5.36427e-05
8.96108e-07
1.18136e-08
1.28813e-10
1.21286e-12
9.83983e-15
0
0
0
0
0
0
0
0
0
0
5.77919e-07
1.55123e-05
0.000616488
0.00363177
0.0167779
0.0544751
0.0571173
0.0595116
0.0615982
0.0638453
0.0665565
0.0694632
0.0725894
0.075704
0.0784437
0.0798191
0.374418
0.369206
0.361319
0.350874
0.338409
0.324941
0.311581
0.298845
0.286822
0.275407