/*--------------------------------*- C++ -*----------------------------------*\
| =========                 |                                                 |
| \\      /  F ield         | OpenFOAM: The Open Source CFD Toolbox           |
|  \\    /   O peration     | Version:  2.1.0                                 |
|   \\  /    A nd           | Web:      www.OpenFOAM.org                      |
|    \\/     M anipulation  |                                                 |
\*---------------------------------------------------------------------------*/
FoamFile
{
    version     2.0;
    format      ascii;
    class       surfaceScalarField;
    location    "56210";
    object      phi_o;
}
// * * * * * * * * * * * * * * * * * * * * * * * * * * * * * * * * * * * * * //

dimensions      [1 -2 -2 0 0 0 0];

internalField   nonuniform List<scalar> 
29750
(
18.5938
18.6165
11.2285
7.36533
7.76034
3.46812
5.85985
1.90066
4.69143
1.17134
3.92033
0.786951
3.39713
0.565203
3.0381
0.428983
2.78595
0.340097
2.60251
0.278139
2.46462
0.232237
2.35871
0.196559
2.27665
0.167845
2.21325
0.144153
2.16499
0.124255
2.1293
0.107332
2.10423
0.0928164
2.08818
0.0803059
2.07982
0.0695039
2.07799
0.0601906
2.08167
0.0521958
2.08992
0.0453851
2.10189
0.0396472
2.11679
0.0348837
2.13392
0.0310045
2.15261
0.0279234
2.17229
0.0255556
2.19243
0.0238178
2.21258
0.02263
2.23237
0.0219175
2.25145
0.0216128
2.26956
0.021658
2.28646
0.0220037
2.30194
0.0226095
2.31584
0.0234409
2.32801
0.0244641
2.33834
0.0256463
2.34675
0.0269525
2.35321
0.0283422
2.35771
0.0297697
2.36032
0.0311852
2.36112
0.0325359
2.36027
0.0337677
2.35795
0.0348268
2.3544
0.0356647
2.34992
0.0362388
2.34481
0.0365128
2.33941
0.0364595
2.33409
0.036062
2.3292
0.0353154
2.3251
0.0342262
2.32212
0.0328122
2.32057
0.0311042
2.3207
0.0291428
2.32274
0.0269773
2.32683
0.0246655
2.33307
0.022269
2.34149
0.0198515
2.35206
0.0174775
2.36467
0.0152094
2.37917
0.0131037
2.39536
0.0112087
2.413
0.00956251
2.4318
0.00819147
2.4515
0.00710988
2.47181
0.00631798
2.49245
0.00580437
2.51319
0.00554571
2.5338
0.00550924
2.55411
0.00565714
2.57397
0.00595067
2.59328
0.00635282
2.61197
0.0068305
2.62998
0.00735545
2.64732
0.00790262
2.66397
0.00844914
2.67997
0.00897453
2.69537
0.00945733
2.71023
0.00987238
2.72465
0.0101937
2.73875
0.0103946
2.75268
0.0104448
2.76663
0.0103145
2.78081
0.00997672
2.79545
0.00940666
2.81082
0.00858092
2.82718
0.00748107
2.84483
0.00609148
2.86409
0.00439691
2.88525
0.00238428
2.90867
4.07528e-05
2.93468
-0.00265006
2.96367
-0.00570925
2.99602
-0.00916337
3.03217
-0.0130454
3.0726
-0.0173965
3.11783
-0.0222699
3.16845
-0.0277313
3.22512
-0.0338586
3.28861
-0.0407445
3.35978
-0.0484969
3.43964
-0.0572432
3.52932
-0.0671277
3.63013
-0.0783136
3.74356
-0.0909797
3.87127
-0.105317
4.01513
-0.121514
4.17718
-0.139745
4.35959
-0.160143
4.56458
-0.182749
4.79424
-0.207459
5.05034
-0.233935
5.33399
-0.261511
5.64521
-0.289101
5.98248
-0.315173
6.34243
-0.337881
6.71999
-0.355491
7.10924
-0.367205
7.50557
-0.374285
7.90858
-0.380974
8.3249
-0.394292
8.76928
-0.422348
9.26359
-0.472259
9.83368
-0.548
10.5033
-0.647484
11.2835
-0.757938
12.156
-0.850066
13.0546
-0.875986
13.8624
-0.785061
14.4616
-0.57643
14.8357
-0.351662
15.0113
-0.153315
15.0135
0.0198798
14.852
0.1836
14.5296
0.344454
14.07
0.48163
13.5382
0.553895
12.9582
0.602039
12.3058
0.67446
11.537
0.790788
10.6222
0.936847
9.56779
1.07644
8.40415
1.18568
7.17606
1.25013
5.92719
1.2709
4.68906
1.26016
3.47805
1.23305
2.29755
1.20254
1.14188
1.17776
1.16415
7.34261
11.2739
7.33126
7.37667
6.19288
4.6065
5.13052
2.96352
4.30704
2.00031
3.69858
1.41823
3.26091
1.05411
2.94922
0.81787
2.72399
0.657139
2.55661
0.541654
2.42894
0.454395
2.33
0.385744
2.25296
0.330062
2.19335
0.283874
2.14806
0.244929
2.11479
0.211706
2.09172
0.18314
2.07738
0.158471
2.07051
0.13714
2.07
0.118728
2.07486
0.102913
2.08418
0.0894378
2.09712
0.0780884
2.11291
0.0686762
2.13084
0.0610258
2.15024
0.0549666
2.17055
0.0503301
2.19124
0.0469494
2.21187
0.0446621
2.23206
0.043317
2.2515
0.0427777
2.26991
0.0429275
2.28707
0.0436706
2.30277
0.0449264
2.31686
0.0466282
2.32919
0.0487156
2.33965
0.0511254
2.34814
0.0537866
2.35464
0.0566192
2.35913
0.059532
2.36167
0.062423
2.36235
0.0651823
2.36133
0.0677005
2.35878
0.0698707
2.35498
0.0715929
2.35019
0.0727787
2.34475
0.0733551
2.33901
0.0732667
2.33334
0.0724792
2.32811
0.0709799
2.32369
0.0687826
2.32041
0.0659248
2.31861
0.0624675
2.31854
0.0584951
2.32043
0.0541087
2.32443
0.0494236
2.33065
0.0445666
2.33912
0.0396688
2.34979
0.0348608
2.36256
0.0302681
2.37728
0.0260061
2.39372
0.0221745
2.41163
0.0188529
2.43072
0.0160964
2.45071
0.0139347
2.47129
0.0123676
2.49219
0.0113675
2.51315
0.0108829
2.53395
0.0108463
2.55441
0.0111795
2.57438
0.0118026
2.59376
0.0126406
2.61249
0.0136266
2.63053
0.0147035
2.64786
0.0158225
2.6645
0.0169393
2.68046
0.0180127
2.69579
0.0190014
2.71055
0.0198579
2.72485
0.0205287
2.7388
0.0209584
2.75255
0.0210885
2.76629
0.0208589
2.78024
0.0202111
2.79463
0.0190935
2.80972
0.017462
2.82579
0.0152783
2.84314
0.0125115
2.86207
0.00913525
2.88291
0.00512429
2.90598
0.000453544
2.93162
-0.004908
2.96021
-0.0109986
2.99214
-0.0178691
3.02782
-0.0255856
3.06773
-0.0342328
3.11237
-0.0439146
3.16232
-0.0547591
3.21823
-0.0669197
3.28085
-0.080581
3.35103
-0.0959584
3.42975
-0.113304
3.51814
-0.132908
3.61747
-0.155099
3.72922
-0.180239
3.85507
-0.208716
3.9969
-0.240931
4.15678
-0.277261
4.33699
-0.318009
4.53987
-0.363324
4.76776
-0.413078
5.02277
-0.466694
5.3064
-0.522926
5.61914
-0.57963
5.95977
-0.63361
6.32482
-0.680746
6.70827
-0.716748
7.10216
-0.738893
7.49888
-0.748794
7.89526
-0.755117
8.29684
-0.773606
8.71937
-0.822553
9.18785
-0.918315
9.73419
-1.07174
10.3929
-1.28322
11.1914
-1.53296
12.1301
-1.76431
13.1455
-1.86563
14.0711
-1.68387
14.6863
-1.16586
15.0341
-0.674778
15.1845
-0.280183
15.1772
0.0499774
15.0128
0.370984
14.6668
0.713626
14.1423
1.0293
13.5863
1.13305
13.0306
1.1809
12.4221
1.30608
11.6831
1.55291
10.7618
1.8812
9.67703
2.18418
8.46859
2.41698
7.19683
2.5446
5.91645
2.57384
4.66195
2.53707
3.44755
2.46974
2.27278
2.39951
1.12826
2.34443
2.31467
3.44538
7.82852
4.56109
6.26096
4.5499
4.61786
4.16731
3.34834
3.72496
2.45503
3.33446
1.84442
3.02467
1.42831
2.78849
1.13976
2.60851
0.932622
2.46935
0.777725
2.36029
0.657388
2.27431
0.560914
2.20677
0.48164
2.1544
0.415263
2.11484
0.3589
2.08622
0.310553
2.06705
0.268807
2.05605
0.232634
2.0521
0.201274
2.05418
0.174156
2.06138
0.150837
2.07283
0.130962
2.08771
0.114234
2.10526
0.100386
2.12478
0.0891675
2.14561
0.0803278
2.16717
0.0736151
2.18895
0.0687759
2.21052
0.0655616
2.23152
0.0637382
2.25165
0.0630981
2.27065
0.0634651
2.28832
0.0646959
2.30448
0.0666808
2.31895
0.069328
2.3316
0.0725541
2.34231
0.0762725
2.35098
0.0803823
2.35755
0.0847623
2.36202
0.0892724
2.36443
0.0937546
2.36487
0.0980403
2.3635
0.101958
2.36051
0.105343
2.35616
0.108041
2.35077
0.109916
2.34466
0.110853
2.33823
0.110767
2.33184
0.109601
2.32591
0.107339
2.32083
0.103997
2.31696
0.099633
2.31463
0.0943436
2.31415
0.0882577
2.31574
0.0815331
2.31957
0.0743493
2.32576
0.0669012
2.33431
0.0593907
2.3452
0.0520223
2.3583
0.0449895
2.37345
0.0384715
2.3904
0.0326252
2.40887
0.0275743
2.42856
0.0234066
2.44914
0.0201649
2.47029
0.0178479
2.49171
0.0164109
2.51312
0.0157688
2.53429
0.0158099
2.55503
0.0164089
2.57521
0.0174387
2.59475
0.0187818
2.61357
0.0203349
2.63165
0.0220127
2.64898
0.0237465
2.66557
0.0254753
2.68145
0.0271408
2.69664
0.0286833
2.71122
0.0300342
2.72528
0.0311142
2.73893
0.0318354
2.75232
0.0321066
2.76564
0.0318343
2.77912
0.0309306
2.79299
0.029314
2.80753
0.0269152
2.82302
0.0236791
2.83976
0.0195624
2.85806
0.0145296
2.87824
0.00854718
2.90061
0.00158128
2.92553
-0.00640915
2.95334
-0.0154777
2.98442
-0.0256986
3.01918
-0.0371677
3.05805
-0.050007
3.10152
-0.0643689
3.15016
-0.0804405
3.20457
-0.0984498
3.26548
-0.118668
3.33369
-0.141416
3.41015
-0.167069
3.49594
-0.196063
3.59233
-0.228892
3.70074
-0.266113
3.82286
-0.308333
3.96057
-0.356187
4.11604
-0.410309
4.29167
-0.471255
4.49011
-0.539405
4.71415
-0.614776
4.96653
-0.696768
5.2497
-0.78379
5.56516
-0.872789
5.91263
-0.958775
6.28882
-1.0346
6.68613
-1.09168
7.09226
-1.12259
7.49256
-1.12657
7.87677
-1.11671
8.24789
-1.12198
8.62361
-1.17533
9.03443
-1.30589
9.52271
-1.53628
10.1431
-1.87894
10.96
-2.32352
12.0287
-2.80368
13.3273
-3.12999
14.5891
-2.90838
15.1774
-1.72288
15.4287
-0.898356
15.5147
-0.340719
15.4982
0.0906734
15.3555
0.538769
14.9824
1.11238
14.246
1.79192
13.6342
1.77101
13.1558
1.68514
12.6689
1.81866
12.0114
2.23613
11.0648
2.85337
9.90983
3.3644
8.59621
3.75542
7.22607
3.93898
5.87968
3.94387
4.59462
3.84527
3.37732
3.70978
2.2177
3.58158
1.09851
3.48588
3.43545
1.87783
5.95085
2.91799
5.22127
3.28038
4.25762
3.274
3.36389
3.11435
2.64197
2.91836
2.09469
2.73611
1.68934
2.58135
1.38762
2.45361
1.15817
2.34901
0.978893
2.26381
0.835124
2.19504
0.7172
2.14039
0.618674
2.09804
0.535142
2.06649
0.463531
2.04448
0.401646
2.03088
0.347896
2.02469
0.301105
2.02498
0.260398
2.03086
0.225107
2.04151
0.194714
2.0561
0.168803
2.07386
0.147018
2.09404
0.129036
2.11594
0.114541
2.13889
0.103211
2.16233
0.0947091
2.18574
0.0886897
2.2087
0.0848084
2.23088
0.0827396
2.25201
0.082195
2.27188
0.0829392
2.29031
0.0847899
2.30712
0.0876123
2.32218
0.091304
2.33532
0.0957735
2.34642
0.100918
2.35536
0.106611
2.36206
0.112693
2.3665
0.11897
2.36872
0.125222
2.36879
0.131213
2.36688
0.136703
2.3632
0.141463
2.35804
0.145279
2.3517
0.147961
2.34458
0.14935
2.33706
0.149323
2.32958
0.147801
2.32257
0.144756
2.31647
0.140212
2.31167
0.134249
2.30855
0.126999
2.30743
0.118642
2.30856
0.109399
2.31213
0.0995197
2.31825
0.0892775
2.32694
0.078953
2.33816
0.0688289
2.35178
0.0591776
2.3676
0.0502486
2.38535
0.0422629
2.4047
0.0353963
2.42532
0.0297736
2.44683
0.0254556
2.46886
0.0224365
2.49107
0.0206457
2.51316
0.0199563
2.53488
0.0202011
2.55606
0.0211946
2.57656
0.0227512
2.5963
0.024703
2.61524
0.0269101
2.63338
0.0292608
2.65071
0.0316704
2.66724
0.0340699
2.68299
0.0363905
2.69799
0.0385577
2.7123
0.0404829
2.726
0.0420602
2.7392
0.043168
2.75205
0.0436768
2.76474
0.0434542
2.7775
0.0423744
2.79059
0.0403261
2.8043
0.037216
2.81891
0.0329734
2.83473
0.0275439
2.85208
0.0208868
2.87127
0.0129691
2.89262
0.00375331
2.91646
-0.00680897
2.94312
-0.0187835
2.97295
-0.0322596
3.00634
-0.047358
3.04369
-0.064235
3.08545
-0.0830879
3.13215
-0.104159
3.18435
-0.127745
3.24273
-0.154197
3.30804
-0.183938
3.38116
-0.217462
3.46312
-0.255346
3.55511
-0.298259
3.65852
-0.346954
3.775
-0.402275
3.90645
-0.465135
4.05509
-0.536488
4.22352
-0.617257
4.41474
-0.708218
4.63215
-0.809799
4.87951
-0.921746
5.1607
-1.04259
5.47917
-1.16885
5.8368
-1.29395
6.23174
-1.407
6.65522
-1.49247
7.08828
-1.53271
7.50242
-1.51748
7.8715
-1.46223
8.19454
-1.42116
8.49305
-1.44959
8.80404
-1.59205
9.18005
-1.88648
9.69853
-2.36987
10.4799
-3.07408
11.7024
-3.98962
13.5489
-4.92824
15.7746
-5.08086
16.0019
-1.91752
15.9863
-0.854123
15.9461
-0.273832
15.9463
0.116477
15.9291
0.583645
15.662
1.40893
14.2251
3.26002
13.5483
2.47818
13.2893
1.97358
13.0864
2.05074
12.6286
2.72333
11.5758
3.93586
10.3008
4.66855
8.77978
5.30466
7.23096
5.51464
5.78107
5.41919
4.45913
5.19149
3.24912
4.94321
2.122
4.73151
1.04808
4.58222
4.50582
1.14825
4.80526
1.95434
4.42028
2.38665
3.83711
2.55208
3.22526
2.56707
2.6771
2.51301
2.22279
2.43439
1.85838
2.3519
1.56771
2.27434
1.33385
2.20524
1.14301
2.14589
0.984847
2.09651
0.851869
2.05686
0.738657
2.02643
0.641275
2.00461
0.556838
1.99073
0.483215
1.98409
0.418811
1.98398
0.362432
1.98969
0.31317
2.00047
0.270331
2.0156
0.233374
2.03432
0.20186
2.05588
0.175409
2.07955
0.153666
2.10461
0.136268
2.13039
0.122829
2.15631
0.112925
2.18185
0.106106
2.20663
0.101915
2.23034
0.0999155
2.25276
0.0997315
2.27373
0.10106
2.29313
0.103688
2.31081
0.107473
2.32665
0.112323
2.34047
0.118156
2.35211
0.124873
2.36144
0.132328
2.36834
0.140322
2.37276
0.148601
2.37471
0.15687
2.37428
0.164815
2.37164
0.172117
2.36702
0.178474
2.36072
0.183604
2.35309
0.187257
2.34455
0.189223
2.33554
0.189337
2.32654
0.18749
2.31803
0.183641
2.3105
0.177817
2.30442
0.170121
2.30019
0.16073
2.29818
0.149882
2.29868
0.137869
2.30188
0.125024
2.30792
0.111706
2.31682
0.098286
2.32851
0.0851349
2.34285
0.0726134
2.35961
0.0610551
2.37848
0.0507541
2.39908
0.0419504
2.421
0.0348124
2.44381
0.0294232
2.46707
0.0257712
2.49038
0.0237525
2.5134
0.0231835
2.53588
0.0238214
2.55762
0.0253979
2.57851
0.0276516
2.59851
0.0303538
2.6176
0.0333247
2.63579
0.0364343
2.65311
0.0395919
2.66956
0.0427305
2.68516
0.0457825
2.69992
0.0486654
2.71388
0.0512733
2.72711
0.0534715
2.73971
0.0551002
2.75183
0.0559815
2.76366
0.0559347
2.77546
0.054791
2.78748
0.0524044
2.80005
0.0486564
2.81348
0.0434606
2.82807
0.0367599
2.84416
0.028517
2.86206
0.0187028
2.88206
0.00728494
2.90449
-0.00578182
2.92964
-0.0205692
2.95785
-0.0371785
2.98946
-0.05575
3.02483
-0.0764687
3.06438
-0.0995696
3.10856
-0.125344
3.1579
-0.154149
3.21299
-0.186412
3.27451
-0.222648
3.34327
-0.263464
3.4202
-0.309574
3.50641
-0.361811
3.6032
-0.421136
3.71214
-0.488642
3.8351
-0.565555
3.97432
-0.653214
4.13256
-0.753023
4.31316
-0.866361
4.52021
-0.994394
4.75867
-1.13775
5.03444
-1.29587
5.35408
-1.46594
5.72375
-1.64092
6.14628
-1.8066
6.61498
-1.93782
7.10352
-1.9972
7.55766
-1.94657
7.91257
-1.79143
8.16611
-1.6486
8.35058
-1.60757
8.50961
-1.72388
8.69666
-2.04504
8.99432
-2.63681
9.56431
-3.60939
10.7638
-5.1473
13.3963
-7.50106
18.9379
-10.5694
17.0653
-18.5645
16.5666
-6.0102
16.3364
-0.19003
16.4135
0.759363
16.7544
2.94952
17.5131
7.29155
13.4433
7.36635
13.0437
2.91085
13.3665
1.68195
13.759
1.68919
13.8411
2.67342
12.3085
5.50261
10.937
6.07402
8.98976
7.28454
7.13551
7.39923
5.55338
7.02913
4.21085
6.55976
3.03741
6.1409
1.97271
5.81946
0.971689
5.60585
5.49984
0.763265
4.05652
1.37117
3.83365
1.77479
3.46755
2.00392
3.04913
2.11276
2.6417
2.1486
2.27597
2.14372
1.96034
2.11805
1.69218
2.08349
1.46501
2.04708
1.27188
2.01291
1.10662
1.9833
0.964148
1.95948
0.840451
1.94199
0.732387
1.93098
0.637523
1.92632
0.553983
1.92771
0.480321
1.93472
0.415425
1.94685
0.358443
1.96351
0.308717
1.98408
0.265736
2.00787
0.229086
2.03414
0.1984
2.06215
0.173324
2.09117
0.15347
2.12049
0.138396
2.14949
0.127586
2.17766
0.120467
2.20463
0.116437
2.23015
0.114923
2.25409
0.11543
2.27636
0.117588
2.29691
0.12116
2.31566
0.126027
2.33248
0.13214
2.34718
0.139463
2.35957
0.14792
2.36943
0.15736
2.37662
0.16754
2.38102
0.178131
2.38265
0.188746
2.38158
0.198973
2.378
0.208401
2.37215
0.216642
2.36437
0.223341
2.35506
0.228181
2.34466
0.230893
2.33369
0.231261
2.32269
0.229136
2.3122
0.224455
2.30281
0.217248
2.29503
0.207647
2.28934
0.195876
2.28617
0.182245
2.28583
0.167132
2.28857
0.150964
2.2945
0.134198
2.30367
0.11731
2.31599
0.100774
2.3313
0.0850476
2.34931
0.0705656
2.36967
0.0577115
2.39194
0.0468033
2.41561
0.0380668
2.44015
0.0316166
2.46505
0.0274366
2.48981
0.0253772
2.51404
0.0251723
2.53745
0.026473
2.55987
0.028896
2.58121
0.0320766
2.60148
0.0357104
2.6207
0.039577
2.63895
0.0435381
2.65625
0.0475147
2.67261
0.0514599
2.68804
0.0553257
2.70253
0.0590338
2.71608
0.0624637
2.72874
0.0654459
2.74059
0.0677716
2.75178
0.0692059
2.76252
0.0695071
2.77307
0.0684496
2.78374
0.0658427
2.79486
0.0615422
2.80678
0.055454
2.81983
0.0475227
2.83435
0.0377241
2.85064
0.0260471
2.869
0.0124761
2.8897
-0.00302426
2.91303
-0.0205214
2.93928
-0.0401226
2.96874
-0.0619813
3.00173
-0.0863045
3.03861
-0.113359
3.07976
-0.14348
3.12564
-0.177073
3.17675
-0.214633
3.2337
-0.256755
3.29716
-0.304146
3.36797
-0.357647
3.44709
-0.418247
3.5357
-0.487105
3.63523
-0.565571
3.74744
-0.655197
3.87451
-0.757752
4.01923
-0.875216
4.18513
-1.00975
4.37685
-1.1636
4.60054
-1.33888
4.86437
-1.53707
5.1791
-1.75788
5.55808
-1.99683
6.01506
-2.23997
6.5556
-2.45371
7.15414
-2.56909
7.7128
-2.47551
8.05541
-2.10395
8.20714
-1.77071
8.23428
-1.6053
8.18844
-1.64831
8.10489
-1.93073
8.02175
-2.52103
8.02641
-3.57834
8.41005
-5.4905
10.3279
-9.36324
10.9429
-12.6614
29.6196
-24.7917
22.3868
-19.3378
17.2858
-3.90565
18.6037
7.27946
21.0964
9.14002
17.5879
4.21015
8.98778
0.802786
11.8148
1.38707
13.3737
1.83254
14.7432
3.90017
16.6703
8.56416
12.8799
9.32725
12.1475
6.84134
9.10445
10.3631
6.76541
9.77149
5.08401
8.74041
3.79199
7.8788
2.71597
7.24192
1.75909
6.8
0.865682
6.52207
6.38791
0.540394
3.55516
1.00508
3.41731
1.35637
3.17822
1.59648
2.88613
1.74703
2.58075
1.83297
2.28687
1.87556
2.01665
1.89088
1.7742
1.89036
1.55926
1.88182
1.36963
1.87044
1.20243
1.85961
1.05477
1.85141
0.924053
1.84713
0.808053
1.84744
0.70492
1.85266
0.613152
1.86281
0.531549
1.87774
0.459164
1.89712
0.395264
1.92053
0.33929
1.94743
0.29081
1.97718
0.249482
2.00906
0.215
2.0423
0.187048
2.07609
0.165246
2.10968
0.149108
2.14237
0.138018
2.17363
0.131246
2.20312
0.127995
2.23066
0.127498
2.25624
0.129103
2.27993
0.132359
2.30178
0.137029
2.32178
0.143059
2.3398
0.1505
2.35564
0.159415
2.36901
0.169793
2.37961
0.181488
2.38721
0.194201
2.39164
0.207506
2.39288
0.220895
2.39101
0.233826
2.38624
0.245778
2.37885
0.256266
2.36921
0.264857
2.35777
0.271163
2.34503
0.274843
2.33157
0.275615
2.318
0.273278
2.305
0.267736
2.29321
0.259019
2.28326
0.247288
2.27571
0.23283
2.27106
0.216041
2.26966
0.197401
2.2718
0.177451
2.27761
0.156765
2.28713
0.135934
2.30026
0.115552
2.31681
0.096192
2.33646
0.0784016
2.35877
0.0626764
2.38321
0.0494366
2.40916
0.0389896
2.43597
0.0314954
2.46299
0.0269365
2.4896
0.0251044
2.51534
0.0256162
2.53988
0.0279658
2.56305
0.031602
2.58484
0.0360152
2.60534
0.0408041
2.62467
0.0457073
2.64293
0.0505975
2.66019
0.0554418
2.67648
0.0602457
2.69175
0.0650038
2.70596
0.0696588
2.71906
0.0740804
2.73106
0.0780601
2.74202
0.0813235
2.75208
0.0835548
2.76146
0.0844291
2.77046
0.0836475
2.77944
0.080967
2.78877
0.0762141
2.79885
0.0692876
2.81003
0.0601518
2.82267
0.0488127
2.83707
0.0352909
2.85349
0.0196023
2.8722
0.00173398
2.89343
-0.0183651
2.91742
-0.0408008
2.94442
-0.0657355
2.97468
-0.0933946
3.00849
-0.124069
3.04617
-0.158125
3.08808
-0.196011
3.13463
-0.238272
3.1863
-0.285571
3.24366
-0.338696
3.30737
-0.398595
3.37823
-0.466396
3.45723
-0.543438
3.5456
-0.631306
3.64488
-0.731872
3.75705
-0.847336
3.88469
-0.980285
4.03128
-1.13375
4.20157
-1.31128
4.40235
-1.51698
4.64356
-1.75543
4.94015
-2.03136
5.31494
-2.34795
5.80131
-2.70162
6.44022
-3.06567
7.24772
-3.34441
8.08436
-3.27058
8.38864
-2.37147
8.37254
-1.72125
8.19127
-1.39222
7.90602
-1.33162
7.51458
-1.50747
6.96444
-1.93811
6.11425
-2.69405
4.5373
-3.87829
7.02981
-5.44813
-1.18749
-9.03317
35.0735
-4.28731
37.8189
-7.46804
28.4709
1.5934
20.4642
8.12339
16.1665
11.3418
14.1805
14.2398
9.57206
15.2422
12.2603
17.0571
15.4413
16.8631
19.4072
10.6212
17.4334
7.49044
10.394
7.32752
15.6693
18.3449
8.51282
17.5542
5.73434
12.5835
4.2224
10.2826
3.1551
8.97345
2.27405
8.14827
1.48116
7.61677
0.731524
7.29464
7.14187
0.402544
3.21888
0.765989
3.12788
1.06428
2.96327
1.2911
2.75097
1.45315
2.51564
1.56275
2.27587
1.6331
2.04363
1.67594
1.82553
1.70073
1.62453
1.71461
1.44131
1.72278
1.27532
1.72889
1.12542
1.73541
0.990268
1.744
0.868501
1.75568
0.758884
1.77106
0.660333
1.79043
0.571941
1.81384
0.492976
1.84115
0.422871
1.87205
0.361208
1.9061
0.307684
1.9427
0.26208
1.98111
0.224205
2.0205
0.193834
2.05996
0.170637
2.09859
0.154111
2.1356
0.143528
2.17038
0.137949
2.20262
0.136297
2.23227
0.137508
2.2595
0.140707
2.2846
0.145337
2.30781
0.151195
2.32922
0.158368
2.34872
0.167108
2.36602
0.177664
2.3807
0.190139
2.39232
0.204409
2.40051
0.220104
2.40503
0.236651
2.40581
0.253367
2.40296
0.26954
2.39673
0.284509
2.38744
0.297689
2.37552
0.308569
2.36145
0.316686
2.3458
0.321621
2.32923
0.323003
2.31246
0.320554
2.29628
0.314126
2.28147
0.30374
2.2688
0.289594
2.25892
0.272054
2.25242
0.251627
2.24971
0.228922
2.25111
0.204615
2.25678
0.179418
2.26675
0.154056
2.28091
0.129249
2.29902
0.105708
2.32073
0.0841133
2.34553
0.0651
2.37276
0.0492214
2.40167
0.0369038
2.43142
0.0283852
2.46116
0.0236595
2.49012
0.0224401
2.51769
0.0241757
2.54351
0.0281256
2.56746
0.0334865
2.58963
0.0395353
2.61025
0.0457413
2.62956
0.0518122
2.64777
0.0576689
2.665
0.0633751
2.68123
0.0690443
2.6964
0.0747547
2.71038
0.0804913
2.72304
0.0861169
2.73433
0.0913708
2.74425
0.0958883
2.75295
0.0992421
2.76068
0.100992
2.76778
0.100736
2.77468
0.0981555
2.78184
0.0930493
2.78971
0.0853249
2.79869
0.0749824
2.80915
0.062081
2.82138
0.0467018
2.83563
0.0289102
2.8521
0.00873318
2.871
-0.0138603
2.89249
-0.0389686
2.91676
-0.0667564
2.944
-0.097459
2.97443
-0.131385
3.00828
-0.168924
3.04581
-0.210554
3.08733
-0.256857
3.13318
-0.30854
3.18376
-0.366452
3.23957
-0.43162
3.30119
-0.505279
3.36936
-0.588914
3.44504
-0.684309
3.52942
-0.793603
3.6241
-0.91938
3.73122
-1.06477
3.85375
-1.2336
3.99588
-1.43068
4.1639
-1.66211
4.36763
-1.93604
4.62356
-2.26368
4.96126
-2.66115
5.43727
-3.15132
6.16148
-3.75951
7.32155
-4.46258
8.98347
-4.86437
9.03887
-2.38517
8.70157
-1.34872
8.25187
-0.909742
7.73017
-0.777985
7.08394
-0.829529
6.20851
-1.03086
4.93
-1.38359
2.96747
-1.88395
3.44477
-2.74544
3.55837
-4.22039
31.8928
-2.40085
46.8804
6.54003
35.0009
13.254
23.6826
19.3711
19.0645
27.2894
15.183
32.5759
11.3869
35.0478
12.0663
35.6584
9.19948
32.0964
16.2764
26.1951
17.2705
24.5176
21.4114
30.9494
14.8786
30.8515
3.54213
15.3384
3.43339
12.7197
2.91328
10.8298
2.32993
9.583
1.74255
8.76062
1.15904
8.22414
0.578745
7.89792
7.74308
0.311539
2.99218
0.601376
2.9274
0.851984
2.80652
1.05577
2.64411
1.21339
2.45584
1.33051
2.25534
1.41501
2.05296
1.47494
1.85573
1.51751
1.66796
1.54862
1.49195
1.57289
1.32868
1.59373
1.17827
1.61365
1.04038
1.63438
0.9144
1.65713
0.799654
1.68267
0.695463
1.71146
0.601215
1.74373
0.516411
1.77948
0.440671
1.81853
0.373748
1.8605
0.315514
1.90482
0.265923
1.95074
0.224966
1.9973
0.192583
2.04343
0.168567
2.08801
0.152442
2.13002
0.143369
2.16873
0.140117
2.20383
0.141177
2.23546
0.145021
2.26413
0.150417
2.29046
0.156667
2.31498
0.163664
2.33796
0.171775
2.35927
0.181605
2.37849
0.19373
2.39497
0.208459
2.40802
0.225702
2.41706
0.24497
2.42174
0.265465
2.42198
0.286234
2.41793
0.306324
2.40991
0.324905
2.39832
0.3413
2.38364
0.354938
2.36638
0.365297
2.34719
0.371861
2.32678
0.374138
2.30604
0.371727
2.28589
0.364397
2.26733
0.352146
2.25126
0.335221
2.2385
0.314095
2.22971
0.289423
2.22541
0.261977
2.22592
0.232603
2.23142
0.20217
2.24194
0.171552
2.25736
0.141614
2.27743
0.113211
2.30172
0.087178
2.32965
0.0643217
2.36044
0.0453796
2.39315
0.0309544
2.42669
0.02142
2.45994
0.0168152
2.49185
0.0167628
2.52164
0.0204662
2.54887
0.0268208
2.57351
0.0346297
2.59584
0.0428479
2.61632
0.0507685
2.63541
0.0580871
2.65348
0.0648476
2.67067
0.0713043
2.68694
0.0777631
2.70214
0.0844456
2.716
0.0914051
2.7283
0.0984975
2.73884
0.10539
2.74761
0.111591
2.7547
0.116512
2.76042
0.119541
2.7652
0.120128
2.76958
0.117858
2.77412
0.112494
2.77937
0.103972
2.78579
0.0923647
2.79377
0.0778242
2.80359
0.0605239
2.81545
0.0406059
2.82951
0.0181522
2.84589
-0.00683704
2.8647
-0.034448
2.88606
-0.0648484
2.91008
-0.0982829
2.93689
-0.135071
2.96665
-0.175615
2.99951
-0.220406
3.03565
-0.270043
3.07527
-0.325255
3.11859
-0.386924
3.16591
-0.456122
3.21755
-0.534151
3.27397
-0.622592
3.33574
-0.723362
3.40364
-0.838794
3.47871
-0.97174
3.56239
-1.12571
3.65667
-1.3051
3.76444
-1.51553
3.88997
-1.7645
4.03999
-2.06253
4.22609
-2.42555
4.47109
-2.8806
4.82908
-3.48117
5.45841
-4.35471
6.91976
-5.87082
11.4627
-9.31064
10.0753
-10.4039
9.14055
-5.2995
8.38363
-2.19702
7.67863
-0.554951
6.88261
-0.040779
5.85578
0.324103
4.42964
0.83179
2.10598
0.469497
1.96982
-0.756174
5.37791
-1.48048
40.8337
16.2248
53.5943
28.2602
41.118
25.6045
31.6009
28.8839
24.351
34.4229
17.6549
39.0856
11.9975
40.4524
8.50422
38.7733
3.29823
36.8891
14.599
40.8105
23.7022
42.0459
21.3136
38.0042
-0.634604
19.1657
0.923445
14.3961
1.54354
12.1253
1.66644
10.7326
1.50754
9.76713
1.20607
9.08662
0.832819
8.6211
0.423907
8.32981
8.18949
0.246757
2.83819
0.480499
2.7884
0.689576
2.69358
0.8675
2.56249
1.01289
2.40554
1.12813
2.23278
1.21778
2.05276
1.28717
1.87208
1.3415
1.69548
1.38535
1.52607
1.42248
1.36576
1.45584
1.21556
1.48767
1.07586
1.51963
0.946653
1.55293
0.827716
1.58842
0.718715
1.62666
0.619308
1.66799
0.529206
1.71256
0.448222
1.7603
0.376297
1.81091
0.313506
1.86387
0.260038
1.91836
0.216143
1.97328
0.182036
2.0273
0.157748
2.07893
0.142934
2.12677
0.136663
2.16979
0.137306
2.20767
0.142663
2.24086
0.150427
2.27038
0.158771
2.29746
0.1668
2.3231
0.174617
2.34779
0.183102
2.3714
0.193493
2.39322
0.206918
2.41221
0.224018
2.42729
0.244749
2.43756
0.268409
2.44251
0.293824
2.44207
0.319612
2.43651
0.344466
2.4263
0.367352
2.41196
0.387541
2.394
0.404472
2.37295
0.417597
2.34946
0.426287
2.32437
0.429866
2.29871
0.427731
2.27364
0.419504
2.2504
0.405145
2.23013
0.384969
2.21382
0.359606
2.20227
0.329915
2.19603
0.296888
2.19549
0.261574
2.2008
0.225031
2.212
0.188292
2.22896
0.152369
2.2514
0.118266
2.27886
0.0869888
2.31071
0.0595522
2.34602
0.0369446
2.38361
0.0200403
2.42209
0.00945495
2.45988
0.00535074
2.49556
0.00726256
2.528
0.0140385
2.55668
0.0239975
2.58173
0.0353029
2.60376
0.0464
2.62364
0.0563405
2.64217
0.0648663
2.65993
0.0722794
2.67712
0.0791851
2.69363
0.0862143
2.7091
0.0938158
2.7231
0.102143
2.73519
0.111041
2.74505
0.120067
2.75253
0.128545
2.75773
0.135647
2.76101
0.140508
2.76293
0.142356
2.76421
0.140637
2.7656
0.135083
2.76776
0.125694
2.77125
0.112672
2.77647
0.0963214
2.78367
0.0769579
2.793
0.0548365
2.80452
0.03011
2.81828
0.00281137
2.8343
-0.0271341
2.85262
-0.0599006
2.87329
-0.0957424
2.89635
-0.134988
2.92186
-0.178041
2.94987
-0.225391
2.98044
-0.277632
3.0136
-0.335486
3.0494
-0.399835
3.08788
-0.471757
3.12911
-0.552569
3.1732
-0.643887
3.22031
-0.747689
3.27069
-0.866396
3.32474
-1.00298
3.383
-1.16111
3.44624
-1.34537
3.51547
-1.5616
3.59195
-1.81749
3.67697
-2.1235
3.77104
-2.49459
3.87052
-2.95339
3.95554
-3.53631
3.9423
-4.30449
3.47994
-5.35136
10.3694
-6.70428
15.1798
-13.0607
12.243
-13.6762
10.0257
-7.59485
8.1928
-1.61243
7.24749
2.62415
6.36346
3.25107
4.06735
1.17193
0.88031
0.0436829
1.24551
0.556123
23.0832
1.0725
52.8691
21.8171
50.9386
29.9085
44.3974
32.1346
37.1399
36.1399
29.0137
42.5458
19.0218
49.0706
10.3184
49.1447
6.62002
42.4546
7.21955
36.2709
15.8344
31.7728
19.6605
24.9256
2.4751
11.3865
-5.40423
6.79554
-1.34738
10.3652
0.150817
10.6524
0.701015
10.2072
0.827027
9.66575
0.740549
9.19725
0.541535
8.84365
0.283584
8.61071
8.49559
0.196965
2.73477
0.38568
2.69374
0.558493
2.61465
0.71055
2.50323
0.840126
2.36675
0.948106
2.21285
1.0371
2.0486
1.11056
1.87998
1.1721
1.71174
1.22505
1.54741
1.27228
1.38943
1.31613
1.23938
1.35846
1.09818
1.4007
0.966243
1.44393
0.843682
1.48901
0.730423
1.53656
0.626325
1.58701
0.531269
1.64064
0.445236
1.69751
0.368353
1.75744
0.300921
1.81997
0.24342
1.88425
0.196459
1.949
0.160675
2.01249
0.136534
2.07266
0.124031
2.12741
0.122259
2.17515
0.129065
2.21544
0.14109
2.24921
0.15466
2.27841
0.166908
2.30527
0.176663
2.33158
0.184479
2.35818
0.192155
2.38482
0.202015
2.41032
0.216134
2.43295
0.23568
2.45095
0.260624
2.46297
0.289872
2.4683
0.32161
2.46693
0.353745
2.4594
0.384409
2.44649
0.412347
2.42889
0.436901
2.40712
0.457684
2.38164
0.474212
2.35304
0.485716
2.32224
0.491207
2.29048
0.489728
2.25928
0.480653
2.23023
0.463872
2.20477
0.439819
2.18413
0.409364
2.16924
0.373661
2.16072
0.334001
2.15894
0.291694
2.16406
0.248004
2.17608
0.204131
2.19486
0.16122
2.22012
0.120408
2.25143
0.0828724
2.2881
0.0498685
2.32911
0.0227205
2.37303
0.00272334
2.41798
-0.00907557
2.4618
-0.0122129
2.50233
-0.00718277
2.53796
0.00435141
2.56799
0.0197574
2.59283
0.0361191
2.6137
0.0510509
2.63216
0.0632738
2.64959
0.072706
2.66684
0.080166
2.68415
0.0868893
2.70123
0.0940446
2.71743
0.10241
2.73199
0.112262
2.74421
0.123406
2.75352
0.135241
2.75963
0.146828
2.76259
0.156986
2.76286
0.164453
2.76121
0.168117
2.75866
0.167225
2.75621
0.161486
2.75474
0.151033
2.7549
0.136293
2.75711
0.117821
2.76155
0.096145
2.76827
0.0716739
2.77722
0.0446427
2.78833
0.0151163
2.80153
-0.0169864
2.81678
-0.0518607
2.83404
-0.0897783
2.85329
-0.131076
2.87451
-0.176146
2.89763
-0.225457
2.92258
-0.279574
2.94925
-0.339184
2.97747
-0.405129
3.00706
-0.478448
3.03779
-0.56042
3.0694
-0.652628
3.1016
-0.757026
3.13411
-0.876014
3.16661
-1.01253
3.19874
-1.17019
3.23
-1.35341
3.25958
-1.56768
3.28594
-1.81989
3.30588
-2.11875
3.31224
-2.47505
3.2876
-2.90086
3.18736
-3.40461
2.89543
-3.97326
2.12702
-4.52349
4.01295
-4.83857
14.5642
-7.40541
18.3244
-4.99754
16.0081
-0.134217
12.4294
0.380662
7.8744
2.86408
4.28432
6.02086
2.9391
10.6652
1.39275
16.1762
1.76189
24.9889
43.8278
41.3933
60.9605
46.2432
53.1647
37.6708
48.4027
36.8962
43.5458
40.9968
35.5385
50.5523
19.0958
65.5131
3.62834
64.6113
0.436258
45.6457
2.72145
33.9843
8.98729
25.4944
6.12135
17.2724
-2.11589
9.77368
-1.83454
8.63704
-1.06024
9.61674
-0.294311
9.91178
0.159524
9.7782
0.358528
9.49111
0.386945
9.19277
0.308597
8.9454
0.168465
8.77374
8.68659
0.155941
2.66958
0.30659
2.63367
0.447066
2.56391
0.574074
2.4644
0.686228
2.34058
0.783852
2.19854
0.868485
2.04427
0.942325
1.88329
1.00776
1.72025
1.06707
1.55888
1.12223
1.40198
1.17493
1.25148
1.22653
1.10863
1.27814
0.974098
1.33067
0.848203
1.38491
0.731015
1.4415
0.622506
1.50098
0.522662
1.56375
0.43158
1.63007
0.349547
1.69994
0.277097
1.77301
0.215043
1.84846
0.164461
1.92486
0.126607
1.99999
0.102699
2.07089
0.0934836
2.13422
0.0984371
2.18717
0.114834
2.22901
0.137275
2.26145
0.159586
2.28816
0.176978
2.31309
0.187978
2.33926
0.194049
2.36804
0.198632
2.39894
0.205931
2.42987
0.219606
2.45789
0.241654
2.4802
0.271932
2.49471
0.308608
2.50043
0.348782
2.49759
0.38915
2.48734
0.426898
2.47104
0.460559
2.44967
0.489881
2.42365
0.515012
2.39314
0.535722
2.35853
0.55104
2.32076
0.559409
2.2814
0.559219
2.2425
0.549408
2.20617
0.529778
2.17431
0.500979
2.14843
0.464278
2.12958
0.421277
2.11841
0.373673
2.11525
0.323106
2.12019
0.27107
2.13317
0.218915
2.15404
0.167877