/*--------------------------------*- C++ -*----------------------------------*\
| =========                 |                                                 |
| \\      /  F ield         | OpenFOAM: The Open Source CFD Toolbox           |
|  \\    /   O peration     | Version:  2.1.0                                 |
|   \\  /    A nd           | Web:      www.OpenFOAM.org                      |
|    \\/     M anipulation  |                                                 |
\*---------------------------------------------------------------------------*/
FoamFile
{
    version     2.0;
    format      ascii;
    class       volScalarField;
    location    "56210";
    object      pw;
}
// * * * * * * * * * * * * * * * * * * * * * * * * * * * * * * * * * * * * * //

dimensions      [1 -1 -2 0 0 0 0];

internalField   nonuniform List<scalar> 
15000
(
5847.01
5828.42
5817.19
5809.43
5803.57
5798.88
5794.96
5791.56
5788.52
5785.74
5783.13
5780.67
5778.31
5776.03
5773.82
5771.66
5769.53
5767.42
5765.33
5763.25
5761.18
5759.09
5757
5754.9
5752.79
5750.65
5748.5
5746.33
5744.14
5741.92
5739.69
5737.44
5735.17
5732.88
5730.58
5728.26
5725.94
5723.6
5721.25
5718.9
5716.54
5714.18
5711.82
5709.46
5707.1
5704.75
5702.4
5700.05
5697.71
5695.38
5693.05
5690.72
5688.4
5686.08
5683.76
5681.44
5679.11
5676.78
5674.44
5672.08
5669.72
5667.34
5664.95
5662.53
5660.1
5657.65
5655.18
5652.68
5650.17
5647.64
5645.08
5642.51
5639.92
5637.3
5634.67
5632.03
5629.36
5626.68
5623.99
5621.28
5618.55
5615.81
5613.06
5610.29
5607.51
5604.72
5601.91
5599.08
5596.24
5593.37
5590.49
5587.58
5584.64
5581.68
5578.68
5575.65
5572.58
5569.46
5566.29
5563.07
5559.78
5556.42
5552.98
5549.45
5545.82
5542.08
5538.21
5534.19
5530.01
5525.65
5521.09
5516.29
5511.24
5505.91
5500.26
5494.28
5487.94
5481.22
5474.11
5466.61
5458.7
5450.37
5441.6
5432.34
5422.51
5412
5400.72
5388.56
5375.51
5361.65
5347.18
5332.35
5317.34
5302.32
5287.47
5272.94
5258.87
5245.33
5232.38
5220.07
5208.53
5197.91
5188.34
5179.94
5172.76
5166.83
5162.15
5158.67
5156.37
5155.23
5828.4
5821.05
5813.72
5807.53
5802.4
5798.09
5794.39
5791.13
5788.18
5785.46
5782.9
5780.47
5778.14
5775.89
5773.7
5771.55
5769.43
5767.34
5765.26
5763.19
5761.12
5759.05
5756.97
5754.87
5752.76
5750.62
5748.47
5746.3
5744.11
5741.9
5739.67
5737.42
5735.15
5732.86
5730.56
5728.24
5725.91
5723.57
5721.22
5718.87
5716.51
5714.15
5711.79
5709.42
5707.07
5704.71
5702.36
5700.02
5697.68
5695.34
5693.02
5690.69
5688.37
5686.05
5683.73
5681.41
5679.09
5676.76
5674.42
5672.07
5669.71
5667.33
5664.94
5662.52
5660.09
5657.64
5655.17
5652.68
5650.17
5647.63
5645.08
5642.5
5639.91
5637.3
5634.67
5632.02
5629.35
5626.67
5623.98
5621.27
5618.54
5615.8
5613.05
5610.29
5607.5
5604.71
5601.9
5599.07
5596.23
5593.37
5590.49
5587.58
5584.65
5581.69
5578.7
5575.67
5572.6
5569.49
5566.33
5563.11
5559.83
5556.48
5553.05
5549.53
5545.91
5542.18
5538.33
5534.33
5530.17
5525.84
5521.3
5516.53
5511.51
5506.2
5500.58
5494.62
5488.3
5481.59
5474.48
5466.99
5459.09
5450.79
5442.07
5432.89
5423.15
5412.76
5401.57
5389.44
5376.29
5362.22
5347.54
5332.5
5317.32
5302.14
5287.13
5272.46
5258.32
5244.73
5231.7
5219.28
5207.6
5196.83
5187.16
5178.69
5171.49
5165.57
5160.91
5157.47
5155.19
5154.06
5817.12
5813.68
5809.12
5804.57
5800.4
5796.67
5793.34
5790.31
5787.53
5784.92
5782.45
5780.09
5777.81
5775.61
5773.45
5771.34
5769.25
5767.18
5765.13
5763.08
5761.02
5758.96
5756.89
5754.8
5752.69
5750.57
5748.42
5746.26
5744.07
5741.86
5739.63
5737.37
5735.1
5732.82
5730.51
5728.19
5725.86
5723.52
5721.17
5718.81
5716.45
5714.08
5711.72
5709.35
5706.99
5704.64
5702.29
5699.94
5697.6
5695.27
5692.95
5690.63
5688.31
5685.99
5683.68
5681.36
5679.04
5676.72
5674.38
5672.04
5669.68
5667.31
5664.92
5662.51
5660.08
5657.63
5655.16
5652.67
5650.16
5647.62
5645.07
5642.49
5639.9
5637.28
5634.65
5632
5629.34
5626.65
5623.96
5621.25
5618.52
5615.78
5613.03
5610.26
5607.49
5604.69
5601.89
5599.06
5596.22
5593.36
5590.49
5587.59
5584.66
5581.71
5578.72
5575.7
5572.64
5569.54
5566.39
5563.19
5559.92
5556.59
5553.18
5549.68
5546.09
5542.39
5538.57
5534.61
5530.49
5526.2
5521.71
5516.99
5512.03
5506.78
5501.21
5495.3
5489.01
5482.33
5475.23
5467.74
5459.86
5451.62
5442.99
5433.96
5424.44
5414.29
5403.33
5391.3
5377.98
5363.39
5348.21
5332.78
5317.27
5301.77
5286.41
5271.43
5257.18
5243.55
5230.39
5217.73
5205.71
5194.65
5184.74
5176.14
5168.92
5163.04
5158.44
5155.07
5152.85
5151.75
5809.29
5807.42
5804.5
5801.22
5797.94
5794.83
5791.91
5789.17
5786.59
5784.14
5781.79
5779.53
5777.33
5775.19
5773.09
5771.03
5768.98
5766.95
5764.93
5762.9
5760.87
5758.83
5756.77
5754.7
5752.61
5750.49
5748.35
5746.19
5744
5741.79
5739.56
5737.31
5735.04
5732.75
5730.44
5728.12
5725.78
5723.44
5721.08
5718.72
5716.35
5713.98
5711.62
5709.25
5706.89
5704.53
5702.18
5699.83
5697.49
5695.16
5692.84
5690.53
5688.21
5685.91
5683.6
5681.29
5678.98
5676.66
5674.33
5671.99
5669.64
5667.27
5664.89
5662.48
5660.06
5657.61
5655.14
5652.65
5650.14
5647.6
5645.05
5642.47
5639.88
5637.26
5634.63
5631.98
5629.31
5626.63
5623.93
5621.22
5618.49
5615.75
5613
5610.23
5607.46
5604.67
5601.86
5599.04
5596.21
5593.36
5590.48
5587.59
5584.68
5581.73
5578.76
5575.75
5572.71
5569.62
5566.49
5563.31
5560.06
5556.76
5553.38
5549.91
5546.36
5542.7
5538.92
5535.02
5530.96
5526.74
5522.32
5517.69
5512.81
5507.65
5502.17
5496.34
5490.1
5483.45
5476.36
5468.86
5460.99
5452.79
5444.3
5435.49
5426.31
5416.62
5406.14
5394.43
5380.88
5365.11
5349.11
5333.12
5317.18
5301.23
5285.3
5269.64
5255.41
5241.87
5228.58
5215.49
5202.86
5191.29
5180.98
5172.2
5164.97
5159.19
5154.73
5151.48
5149.36
5148.31
5803.34
5802.19
5800.24
5797.85
5795.3
5792.73
5790.22
5787.79
5785.43
5783.16
5780.96
5778.81
5776.71
5774.66
5772.63
5770.62
5768.63
5766.65
5764.67
5762.68
5760.68
5758.66
5756.63
5754.57
5752.49
5750.39
5748.26
5746.1
5743.92
5741.71
5739.48
5737.23
5734.95
5732.66
5730.35
5728.02
5725.68
5723.33
5720.97
5718.6
5716.23
5713.85
5711.48
5709.11
5706.74
5704.38
5702.03
5699.68
5697.35
5695.02
5692.7
5690.39
5688.09
5685.79
5683.49
5681.19
5678.89
5676.58
5674.26
5671.93
5669.59
5667.23
5664.85
5662.45
5660.03
5657.59
5655.12
5652.63
5650.12
5647.58
5645.03
5642.45
5639.85
5637.23
5634.6
5631.94
5629.27
5626.59
5623.89
5621.17
5618.45
5615.71
5612.96
5610.19
5607.42
5604.63
5601.83
5599.02
5596.19
5593.34
5590.48
5587.6
5584.69
5581.76
5578.81
5575.82
5572.79
5569.73
5566.62
5563.46
5560.25
5556.97
5553.63
5550.21
5546.7
5543.1
5539.39
5535.55
5531.58
5527.45
5523.13
5518.61
5513.85
5508.82
5503.47
5497.74
5491.6
5484.98
5477.88
5470.32
5462.41
5454.24
5445.89
5437.38
5428.68
5419.69
5410.13
5399.36
5385.97
5367.03
5349.96
5333.4
5317.06
5300.65
5283.89
5266.38
5252.94
5239.89
5226.53
5212.77
5198.93
5186.62
5175.68
5166.69
5159.55
5154
5149.79
5146.75
5144.78
5143.81
5798.54
5797.77
5796.4
5794.63
5792.62
5790.51
5788.36
5786.22
5784.1
5782.02
5779.97
5777.96
5775.97
5774.01
5772.07
5770.14
5768.22
5766.29
5764.35
5762.41
5760.44
5758.46
5756.45
5754.42
5752.35
5750.26
5748.14
5745.99
5743.82
5741.61
5739.38
5737.13
5734.85
5732.55
5730.24
5727.91
5725.56
5723.2
5720.83
5718.45
5716.07
5713.69
5711.31
5708.93
5706.56
5704.19
5701.84
5699.49
5697.16
5694.84
5692.52
5690.22
5687.93
5685.64
5683.35
5681.07
5678.78
5676.48
5674.18
5671.86
5669.53
5667.18
5664.81
5662.42
5660
5657.56
5655.1
5652.61
5650.1
5647.56
5645
5642.42
5639.82
5637.19
5634.56
5631.9
5629.23
5626.54
5623.84
5621.12
5618.39
5615.65
5612.9
5610.14
5607.36
5604.58
5601.79
5598.98
5596.16
5593.32
5590.47
5587.6
5584.71
5581.8
5578.86
5575.89
5572.89
5569.85
5566.77
5563.65
5560.47
5557.24
5553.94
5550.57
5547.13
5543.59
5539.95
5536.21
5532.33
5528.31
5524.13
5519.75
5515.15
5510.29
5505.11
5499.55
5493.53
5486.98
5479.82
5472.11
5464.06
5455.85
5447.61
5439.43
5431.32
5423.3
5415.27
5406.86
5396.54
5385.59
5355.97
5333.59
5316.3
5297.7
5276.6
5259.01
5250.02
5238.21
5224.84
5210.09
5193.42
5180.54
5168.4
5159.29
5152.53
5147.44
5143.65
5140.93
5139.17
5138.31
5794.48
5793.94
5792.94
5791.58
5789.98
5788.24
5786.4
5784.53
5782.64
5780.75
5778.86
5776.99
5775.13
5773.28
5771.44
5769.59
5767.73
5765.87
5763.99
5762.1
5760.18
5758.23
5756.25
5754.24
5752.2
5750.12
5748.02
5745.87
5743.7
5741.5
5739.27
5737.01
5734.73
5732.43
5730.11
5727.77
5725.41
5723.04
5720.66
5718.27
5715.88
5713.49
5711.1
5708.71
5706.33
5703.96
5701.61
5699.26
5696.93
5694.61
5692.31
5690.01
5687.73
5685.45
5683.18
5680.91
5678.64
5676.36
5674.08
5671.78
5669.46
5667.12
5664.77
5662.38
5659.97
5657.54
5655.07
5652.58
5650.07
5647.53
5644.97
5642.38
5639.78
5637.15
5634.51
5631.85
5629.17
5626.48
5623.77
5621.05
5618.32
5615.58
5612.83
5610.07
5607.3
5604.52
5601.73
5598.93
5596.12
5593.3
5590.46
5587.61
5584.74
5581.84
5578.92
5575.98
5573.01
5570
5566.95
5563.86
5560.73
5557.54
5554.3
5550.99
5547.61
5544.16
5540.61
5536.96
5533.21
5529.32
5525.29
5521.09
5516.69
5512.04
5507.1
5501.79
5495.99
5489.55
5482.3
5474.22
5465.83
5457.45
5449.26
5441.36
5433.84
5426.88
5420.76
5416.23
5409.2
5410.38
5375.31
5337.49
5309.02
5288.56
5272.39
5258.21
5248.64
5236.38
5220.94
5201.53
5184.1
5173.7
5158.03
5149.52
5143.78
5139.56
5136.41
5134.13
5132.65
5131.92
5790.93
5790.52
5789.76
5788.69
5787.4
5785.95
5784.39
5782.75
5781.08
5779.38
5777.66
5775.94
5774.21
5772.47
5770.73
5768.97
5767.2
5765.41
5763.6
5761.76
5759.89
5757.98
5756.04
5754.06
5752.04
5749.98
5747.88
5745.74
5743.57
5741.37
5739.14
5736.88
5734.59
5732.28
5729.96
5727.61
5725.24
5722.86
5720.47
5718.07
5715.66
5713.26
5710.85
5708.46
5706.07
5703.69
5701.33
5698.99
5696.66
5694.34
5692.05
5689.77
5687.5
5685.24
5682.99
5680.74
5678.49
5676.23
5673.96
5671.68
5669.38
5667.06
5664.72
5662.34
5659.94
5657.51
5655.05
5652.56
5650.04
5647.5
5644.93
5642.34
5639.73
5637.1
5634.45
5631.79
5629.11
5626.41
5623.7
5620.98
5618.24
5615.5
5612.75
5609.98
5607.22
5604.44
5601.66
5598.87
5596.07
5593.26
5590.44
5587.61
5584.75
5581.88
5578.99
5576.07
5573.13
5570.15
5567.15
5564.1
5561.01
5557.88
5554.7
5551.46
5548.16
5544.79
5541.34
5537.81
5534.19
5530.46
5526.6
5522.61
5518.44
5514.08
5509.45
5504.49
5499.05
5492.89
5485.57
5476.59
5467.55
5458.85
5450.59
5442.86
5435.78
5429.57
5424.64
5421.67
5418.23
5414.67
5382.78
5335.9
5300.9
5277.21
5258.15
5242.97
5231.58
5219.51
5210.31
5194.04
5176.77
5155.36
5140.48
5136.94
5133.5
5130.59
5128.26
5126.52
5125.36
5124.78
5787.71
5787.4
5786.79
5785.94
5784.89
5783.67
5782.34
5780.93
5779.45
5777.93
5776.39
5774.81
5773.22
5771.61
5769.97
5768.31
5766.63
5764.92
5763.18
5761.4
5759.58
5757.72
5755.81
5753.86
5751.86
5749.82
5747.73
5745.6
5743.43
5741.23
5739
5736.73
5734.44
5732.13
5729.79
5727.43
5725.05
5722.66
5720.25
5717.83
5715.41
5712.99
5710.57
5708.16
5705.76
5703.38
5701.01
5698.66
5696.34
5694.03
5691.74
5689.48
5687.23
5684.99
5682.76
5680.53
5678.31
5676.07
5673.83
5671.58
5669.3
5667
5664.67
5662.31
5659.91
5657.49
5655.03
5652.53
5650.01
5647.46
5644.89
5642.29
5639.68
5637.04
5634.39
5631.72
5629.03
5626.33
5623.61
5620.89
5618.15
5615.4
5612.64
5609.88
5607.12
5604.35
5601.57
5598.8
5596.01
5593.22
5590.41
5587.6
5584.77
5581.92
5579.06
5576.17
5573.26
5570.32
5567.36
5564.36
5561.32
5558.25
5555.13
5551.96
5548.74
5545.47
5542.14
5538.73
5535.25
5531.69
5528.03
5524.27
5520.38
5516.34
5512.11
5507.64
5502.81
5497.35
5490.43
5478.97
5468.9
5459.76
5451.37
5443.69
5436.81
5430.96
5426.53
5424.42
5422.45
5417.07
5376.24
5322.64
5281.53
5249.93
5225.57
5207.92
5195.92
5187.42
5184.12
5169.52
5145.82
5124.5
5125.14
5124.22
5122.67
5121.01
5119.5
5118.29
5117.46
5117.04
5784.71
5784.47
5783.99
5783.3
5782.43
5781.42
5780.29
5779.07
5777.78
5776.44
5775.06
5773.63
5772.18
5770.69
5769.17
5767.62
5766.03
5764.4
5762.74
5761.02
5759.26
5757.45
5755.59
5753.67
5751.7
5749.67
5747.59
5745.46
5743.29
5741.09
5738.85
5736.57
5734.28
5731.95
5729.61
5727.23
5724.84
5722.43
5720
5717.56
5715.12
5712.68
5710.24
5707.82
5705.41
5703.01
5700.64
5698.29
5695.96
5693.67
5691.39
5689.14
5686.91
5684.7
5682.5
5680.3
5678.1
5675.9
5673.69
5671.46
5669.21
5666.93
5664.62
5662.28
5659.89
5657.47
5655.01
5652.51
5649.99
5647.43
5644.85
5642.24
5639.62
5636.98
5634.32
5631.64
5628.95
5626.24
5623.52
5620.78
5618.04
5615.28
5612.52
5609.76
5607
5604.24
5601.47
5598.7
5595.93
5593.16
5590.37
5587.58
5584.77
5581.96
5579.12
5576.27
5573.4
5570.5
5567.58
5564.63
5561.65
5558.63
5555.58
5552.5
5549.37
5546.19
5542.97
5539.7
5536.38
5533
5529.55
5526.03
5522.44
5518.76
5514.99
5511.12
5507.17
5503.23
5499.75
5489.38
5474.2
5461.95
5451.93
5443.73
5436.49
5430.12
5426.06
5425.18
5423.93
5400.85
5347.98
5297.04
5252.64
5215.5
5186.49
5167.47
5157.15
5150.53
5143.31
5127.47
5107.81
5105.34
5110.74
5112.09
5111.94
5111.24
5110.41
5109.67
5109.13
5108.85
5781.88
5781.68
5781.29
5780.74
5780.02
5779.18
5778.24
5777.2
5776.09
5774.92
5773.69
5772.42
5771.1
5769.74
5768.34
5766.9
5765.41
5763.87
5762.29
5760.65
5758.95
5757.19
5755.37
5753.49
5751.54
5749.53
5747.45
5745.33
5743.15
5740.94
5738.69
5736.41
5734.1
5731.77
5729.41
5727.03
5724.62
5722.18
5719.73
5717.27
5714.8
5712.34
5709.88
5707.43
5705
5702.59
5700.21
5697.86
5695.54
5693.25
5690.99
5688.76
5686.55
5684.37
5682.2
5680.04
5677.88
5675.71
5673.54
5671.34
5669.12
5666.87
5664.58
5662.26
5659.88
5657.46
5655
5652.5
5649.96
5647.39
5644.8
5642.19
5639.56
5636.91
5634.24
5631.55
5628.85
5626.14
5623.4
5620.66
5617.91
5615.15
5612.38
5609.62
5606.86
5604.1
5601.35
5598.59
5595.84
5593.08
5590.32
5587.55
5584.77
5581.98
5579.18
5576.36
5573.53
5570.68
5567.8
5564.91
5561.98
5559.03
5556.06
5553.05
5550.01
5546.94
5543.84
5540.71
5537.54
5534.34
5531.11
5527.85
5524.57
5521.26
5517.95
5514.66
5511.47
5508.58
5506.45
5502.44
5487.87
5469.55
5453.54
5441.11
5433.24
5428.95
5426.01
5424.62
5422.86
5379.03
5318.07
5264.91
5216.5
5172.96
5137.42
5118.32
5114.69
5114.26
5111.54
5102.55
5096.43
5098.54
5100.38
5101.44
5101.73
5101.57
5101.21
5100.83
5100.52
5100.35
5779.14
5778.99
5778.68
5778.23
5777.66
5776.97
5776.19
5775.32
5774.38
5773.37
5772.3
5771.18
5770
5768.78
5767.5
5766.17
5764.78
5763.34
5761.84
5760.28
5758.65
5756.95
5755.18
5753.33
5751.4
5749.4
5747.33
5745.2
5743.01
5740.78
5738.52
5736.23
5733.92
5731.58
5729.21
5726.81
5724.38
5721.92
5719.44
5716.95
5714.45
5711.95
5709.46
5706.99
5704.54
5702.12
5699.73
5697.37
5695.05
5692.77
5690.52
5688.32
5686.14
5683.99
5681.86
5679.75
5677.63
5675.51
5673.38
5671.22
5669.04
5666.82
5664.56
5662.25
5659.89
5657.48
5655.01
5652.5
5649.94
5647.36
5644.75
5642.12
5639.48
5636.83
5634.15
5631.46
5628.75
5626.02
5623.28
5620.52
5617.76
5614.99
5612.22
5609.45
5606.69
5603.94
5601.19
5598.45
5595.72
5592.98
5590.25
5587.5
5584.76
5582
5579.23
5576.45
5573.66
5570.85
5568.03
5565.18
5562.32
5559.44
5556.53
5553.61
5550.66
5547.7
5544.72
5541.72
5538.71
5535.69
5532.68
5529.67
5526.68
5523.73
5520.85
5518.06
5515.45
5513.1
5511.29
5509.84
5492.87
5469.68
5453.16
5438.25
5427.22
5418.29
5409.84
5399.63
5381.46
5332.79
5280.4
5228.01
5175.51
5122.4
5071.91
5053.71
5069.05
5080.27
5086.04
5085.28
5086.65
5089.91
5090.76
5091.53
5091.95
5092.08
5092.02
5091.88
5091.75
5091.66
5776.47
5776.35
5776.11
5775.77
5775.32
5774.77
5774.14
5773.44
5772.66
5771.81
5770.9
5769.93
5768.9
5767.8
5766.65
5765.44
5764.16
5762.82
5761.41
5759.93
5758.37
5756.73
5755.01
5753.2
5751.3
5749.31
5747.23
5745.08
5742.87
5740.62
5738.34
5736.04
5733.72
5731.38
5729
5726.59
5724.14
5721.65
5719.14
5716.6
5714.06
5711.52
5709
5706.5
5704.03
5701.58
5699.18
5696.81
5694.49
5692.22
5689.99
5687.82
5685.68
5683.57
5681.49
5679.42
5677.36
5675.29
5673.21
5671.1
5668.97
5666.79
5664.56
5662.28
5659.93
5657.51
5655.04
5652.51
5649.93
5647.32
5644.69
5642.05
5639.4
5636.74
5634.06
5631.36
5628.64
5625.9
5623.15
5620.37
5617.59
5614.81
5612.03
5609.25
5606.49
5603.75
5601.01
5598.29
5595.58
5592.86
5590.15
5587.44
5584.73
5582
5579.27
5576.54
5573.79
5571.02
5568.25
5565.46
5562.66
5559.84
5557.01
5554.17
5551.31
5548.45
5545.58
5542.72
5539.86
5537.02
5534.21
5531.45
5528.74
5526.12
5523.62
5521.27
5519.1
5517.03
5514.38
5513.9
5499.5
5473.3
5451.17
5431.5
5413.98
5397.37
5379.98
5359.32
5331.27
5290.29
5242.73
5191.23
5135.11
5069.25
5014.68
5003.72
5027.52
5051.75
5067.33
5074.27
5077.41
5080.51
5081.21
5081.93
5082.45
5082.75
5082.88
5082.91
5082.89
5082.87
5773.84
5773.75
5773.58
5773.32
5772.99
5772.58
5772.1
5771.55
5770.93
5770.25
5769.49
5768.68
5767.79
5766.83
5765.81
5764.72
5763.55
5762.32
5761
5759.61
5758.13
5756.56
5754.89
5753.12
5751.25
5749.26
5747.17
5744.99
5742.74
5740.45
5738.15
5735.84
5733.52
5731.18
5728.8
5726.38
5723.9
5721.38
5718.81
5716.22
5713.63
5711.05
5708.49
5705.96
5703.45
5700.98
5698.55
5696.17
5693.85
5691.59
5689.39
5687.25
5685.15
5683.1
5681.07
5679.07
5677.07
5675.06
5673.04
5670.99
5668.91
5666.78
5664.59
5662.33
5660
5657.59
5655.1
5652.53
5649.92
5647.28
5644.62
5641.96
5639.3
5636.64
5633.96
5631.26
5628.53
5625.78
5623
5620.21
5617.41
5614.6
5611.8
5609.02
5606.26
5603.52
5600.8
5598.1
5595.4
5592.72
5590.04
5587.36
5584.68
5581.99
5579.3
5576.6
5573.9
5571.18
5568.46
5565.73
5562.99
5560.24
5557.48
5554.71
5551.95
5549.18
5546.43
5543.69
5540.98
5538.3
5535.68
5533.13
5530.68
5528.36
5526.2
5524.26
5522.63
5521.45
5518.91
5517.34
5501.64
5472.86
5446.72
5422.61
5399.82
5377.24
5353.41
5326.43
5294.02
5254.38
5209.01
5159.06
5104.45
5043.51
5004.9
4999.96
5008.47
5031.87
5053.09
5064.2
5065.85
5070.61
5071.61
5072.49
5073.15
5073.57
5073.83
5073.96
5074.02
5074.04
5771.2
5771.15
5771.04
5770.88
5770.66
5770.39
5770.06
5769.67
5769.21
5768.69
5768.1
5767.43
5766.69
5765.88
5764.98
5764.02
5762.97
5761.84
5760.63
5759.33
5757.94
5756.44
5754.84
5753.11
5751.26
5749.28
5747.16
5744.92
5742.61
5740.26
5737.93
5735.61
5733.3
5730.98
5728.61
5726.18
5723.68
5721.1
5718.48
5715.82
5713.16
5710.52
5707.92
5705.35
5702.81
5700.31
5697.85
5695.45
5693.12
5690.87
5688.7
5686.6
5684.56
5682.57
5680.61
5678.68
5676.75
5674.81
5672.86
5670.88
5668.87
5666.8
5664.66
5662.44
5660.13
5657.72
5655.2
5652.59
5649.91
5647.22
5644.53
5641.85
5639.19
5636.53
5633.85
5631.15
5628.41
5625.65
5622.85
5620.03
5617.2
5614.36
5611.54
5608.74
5605.98
5603.24
5600.54
5597.86
5595.2
5592.55
5589.91
5587.26
5584.61
5581.96
5579.31
5576.65
5573.99
5571.33
5568.66
5565.98
5563.3
5560.61
5557.93
5555.24
5552.56
5549.88
5547.23
5544.61
5542.03
5539.5
5537.05
5534.7
5532.47
5530.4
5528.53
5526.92
5525.65
5524.86
5523.38
5520.43
5502.03
5469.8
5440.24
5412.41
5385.45
5358.36
5329.98
5298.97
5264.01
5224.21
5179.86
5131.55
5080.1
5027.64
4998.87
4996.03
4994.9
5014.18
5041.33
5055.35
5055.66
5060.09
5062.1
5063.27
5064.04
5064.55
5064.87
5065.06
5065.16
5065.21
5768.55
5768.53
5768.48
5768.41
5768.31
5768.18
5768
5767.78
5767.49
5767.14
5766.71
5766.2
5765.61
5764.94
5764.19
5763.35
5762.42
5761.41
5760.3
5759.1
5757.8
5756.39
5754.86
5753.19
5751.37
5749.39
5747.24
5744.9
5742.47
5740.03
5737.65
5735.34
5733.06
5730.78
5728.45
5726.03
5723.49
5720.85
5718.14
5715.39
5712.64
5709.93
5707.28
5704.68
5702.1
5699.56
5697.06
5694.62
5692.28
5690.04
5687.9
5685.86
5683.89
5681.98
5680.1
5678.25
5676.41
5674.56
5672.69
5670.79
5668.85
5666.85
5664.78
5662.62
5660.34
5657.93
5655.37
5652.67
5649.91
5647.13
5644.39
5641.7
5639.05
5636.41
5633.75
5631.05
5628.31
5625.52
5622.7
5619.84
5616.96
5614.09
5611.23
5608.41
5605.64
5602.92
5600.24
5597.59
5594.97
5592.35
5589.74
5587.13
5584.52
5581.91
5579.3
5576.69
5574.07
5571.46
5568.84
5566.22
5563.59
5560.97
5558.35
5555.73
5553.13
5550.54
5547.98
5545.46
5542.99
5540.6
5538.3
5536.12
5534.08
5532.22
5530.57
5529.2
5528.16
5527.56
5526.65
5522.29
5499.03
5464.09
5432.03
5401.35
5371.2
5340.76
5309.17
5275.48
5238.82
5198.6
5154.67
5107.19
5056.77
5010.32
4992.22
4992.04
4991.38
5005.75
5032.51
5047.39
5050.29
5051.97
5053.39
5054.43
5055.17
5055.68
5056.01
5056.22
5056.34
5056.39
5765.84
5765.86
5765.88
5765.9
5765.93
5765.95
5765.94
5765.89
5765.78
5765.6
5765.35
5765
5764.57
5764.04
5763.42
5762.71
5761.91
5761.02
5760.03
5758.93
5757.74
5756.42
5754.97
5753.38
5751.61
5749.65
5747.46
5744.94
5742.32
5739.69
5737.28
5735
5732.79
5730.61
5728.36
5725.96
5723.37
5720.64
5717.82
5714.93
5712.04
5709.26
5706.57
5703.94
5701.33
5698.73
5696.17
5693.68
5691.31
5689.08
5686.99
5685.01
5683.13
5681.31
5679.54
5677.79
5676.05
5674.3
5672.52
5670.72
5668.87
5666.96
5664.97
5662.89
5660.67
5658.26
5655.64
5652.81
5649.88
5646.98
5644.18
5641.49
5638.88
5636.29
5633.67
5630.98
5628.22
5625.41
5622.55
5619.64
5616.71
5613.77
5610.85
5608
5605.22
5602.52
5599.88
5597.28
5594.7
5592.13
5589.56
5586.99
5584.41
5581.84
5579.27
5576.7
5574.13
5571.56
5569
5566.43
5563.87
5561.3
5558.75
5556.2
5553.66
5551.15
5548.67
5546.23
5543.86
5541.58
5539.4
5537.36
5535.48
5533.78
5532.31
5531.1
5530.2
5529.67
5529.13
5517.34
5488.31
5455.48
5422.44
5389.76
5357.22
5324.33
5290.47
5254.96
5217.19
5176.68
5133.05
5085.76
5033.24
4995.37
4988.97
4988.66
4989.07
4998.89
5024.04
5039.73
5043.24
5044.08
5045.04
5045.87
5046.51
5046.96
5047.26
5047.45
5047.56
5047.61
5763.06
5763.1
5763.2
5763.33
5763.49
5763.67
5763.85
5763.99
5764.08
5764.09
5764.01
5763.84
5763.56
5763.18
5762.7
5762.13
5761.45
5760.68
5759.81
5758.83
5757.75
5756.55
5755.2
5753.69
5752.01
5750.08
5747.96
5745.04
5742.13
5739.1
5736.76
5734.54
5732.47
5730.46
5728.37
5726.05
5723.35
5720.5
5717.52
5714.43
5711.3
5708.45
5705.78
5703.15
5700.51
5697.85
5695.18
5692.59
5690.17
5687.96
5685.93
5684.05
5682.28
5680.58
5678.93
5677.3
5675.67
5674.03
5672.36
5670.66
5668.91
5667.11
5665.24
5663.27
5661.14
5658.79
5656.1
5653.01
5649.82
5646.68
5643.85
5641.19
5638.66
5636.17
5633.63
5630.95
5628.17
5625.32
5622.42
5619.46
5616.44
5613.4
5610.38
5607.49
5604.71
5602.04
5599.46
5596.92
5594.4
5591.88
5589.35
5586.82
5584.28
5581.74
5579.21
5576.68
5574.16
5571.65
5569.13
5566.62
5564.11
5561.61
5559.11
5556.62
5554.15
5551.7
5549.28
5546.91
5544.62
5542.42
5540.35
5538.42
5536.66
5535.09
5533.75
5532.65
5531.81
5531.24
5530.77
5514.43
5481.39
5447.08
5412.5
5378.04
5343.6
5308.87
5273.4
5236.7
5198.31
5157.87
5115.08
5069.56
5020.5
4990.61
4986.95
4986.59
4987.39
4997.32
5019.85
5031.48
5035.38
5036.04
5036.81
5037.48
5038
5038.36
5038.6
5038.74
5038.82
5038.86
5760.16
5760.24
5760.41
5760.66
5760.98
5761.35
5761.73
5762.09
5762.4
5762.62
5762.73
5762.73
5762.61
5762.38
5762.04
5761.6
5761.05
5760.4
5759.66
5758.81
5757.85
5756.77
5755.55
5754.13
5752.62
5750.67
5749.23
5745.92
5741.16
5737.77
5736.11
5733.88
5732.07
5730.37
5728.59
5726.48
5723.47
5720.44
5717.31
5713.94
5710.25
5707.44
5704.89
5702.35
5699.7
5696.93
5694.08
5691.28
5688.8
5686.62
5684.7
5682.95
5681.32
5679.77
5678.27
5676.78
5675.28
5673.76
5672.2
5670.61
5668.98
5667.31
5665.58
5663.77
5661.82
5659.62
5656.96
5653.26
5649.69
5646.06
5643.31
5640.72
5638.37
5636.09
5633.7
5630.99
5628.16
5625.27
5622.32
5619.29
5616.18
5612.99
5609.77
5606.83
5604.06
5601.46
5598.97
5596.51
5594.07
5591.61
5589.13
5586.63
5584.12
5581.62
5579.12
5576.64
5574.17
5571.7
5569.24
5566.78
5564.32
5561.88
5559.44
5557.01
5554.59
5552.19
5549.81
5547.49
5545.25
5543.11
5541.11
5539.27
5537.61
5536.15
5534.92
5533.91
5533.1
5532.23
5531.76
5512.71
5475.75
5438.94
5402.45
5366.28
5330.28
5294.16
5257.56
5220.12
5181.49
5141.42
5099.84
5056.91
5013.15
4988.79
4986.18
4986.29
4987.04
4990.01
5009.2
5022.1
5027
5027.87
5028.64
5029.22
5029.62
5029.87
5030.01
5030.08
5030.1
5030.11
5757.11
5757.23
5757.48
5757.86
5758.35
5758.94
5759.58
5760.2
5760.75
5761.2
5761.51
5761.69
5761.73
5761.64
5761.44
5761.12
5760.7
5760.18
5759.57
5758.85
5758.03
5757.11
5756.03
5754.64
5753.63
5752.38
5750.23
5745.35
5740.53
5737.29
5734.74
5732.78
5731.53
5730.32
5729.11
5727.77
5725.5
5721.92
5716.56
5711.76
5708.29
5706.11
5703.98
5701.62
5698.97
5696.05
5692.89
5689.65
5687.08
5685.01
5683.25
5681.7
5680.26
5678.9
5677.56
5676.23
5674.88
5673.49
5672.06
5670.58
5669.07
5667.54
5665.98
5664.39
5662.72
5660.88
5658.81
5654.62
5648.74
5644.51
5642.58
5640.01
5637.97
5636.1
5634.07
5631.13
5628.19
5625.25
5622.27
5619.19
5615.99
5612.57
5608.84
5605.98
5603.23
5600.76
5598.41
5596.08
5593.73
5591.34
5588.9
5586.43
5583.94
5581.46
5579
5576.56
5574.14
5571.73
5569.32
5566.91
5564.51
5562.11
5559.73
5557.35
5554.99
5552.62
5550.27
5547.97
5545.74
5543.64
5541.7
5539.92
5538.34
5536.96
5535.81
5534.94
5534.39
5533.44
5532.31
5510.75
5469.97
5430.5
5392.06
5354.35
5317.07
5279.92
5242.57
5204.72
5166.09
5126.49
5085.95
5045.09
5006.71
4987.89
4985.98
4986.02
4986.52
4988.51
5004.38
5014.42
5018.16
5019.77
5020.63
5021.11
5021.36
5021.46
5021.46
5021.43
5021.38
5021.35
5753.87
5754.03
5754.36
5754.88
5755.57
5756.43
5757.38
5758.33
5759.17
5759.86
5760.38
5760.73
5760.93
5760.98
5760.91
5760.72
5760.42
5760.03
5759.54
5758.95
5758.27
5757.56
5756.79
5755.84
5754.53
5750.51
5746.01
5741.38
5737.97
5735.37
5733.7
5731.99
5730.93
5730.24
5729.73
5729.08
5725.78
5720.57
5715
5710.2
5706.69
5704.72
5703.28
5701.13
5698.5
5695.39
5691.74
5687.31
5684.83
5683.05
5681.58
5680.29
5679.1
5677.96
5676.83
5675.69
5674.49
5673.24
5671.93
5670.56
5669.17
5667.76
5666.39
5665.06
5663.77
5662.34
5660.84
5655.86
5648
5643.6
5640.95
5638.72
5637.39
5636.24
5635.3
5633.54
5629.61
5624.95
5622.76
5619.3
5614.79
5610.24
5607.03
5605.01
5602.08
5599.9
5597.8
5595.65
5593.41
5591.08
5588.68
5586.23
5583.73
5581.24
5578.82
5576.44
5574.09
5571.73
5569.37
5567.01
5564.66
5562.32
5559.99
5557.67
5555.35
5553.02
5550.66
5548.33
5546.09
5543.98
5542.07
5540.35
5538.82
5537.49
5536.4
5535.61
5535.15
5534.46
5532.53
5507.39
5462.88
5421.04
5380.95
5341.99
5303.74
5265.88
5228.09
5190.11
5151.66
5112.51
5072.37
5030.78
4997.38
4986.34
4985.73
4985.76
4985.77
4987.17
5001.42
5010.07
5011.41
5012.41
5012.98
5013.21
5013.23
5013.11
5012.94
5012.76
5012.62
5012.54
5750.41
5750.6
5751.01
5751.65
5752.57
5753.77
5755.15
5756.5
5757.69
5758.64
5759.37
5759.89
5760.23
5760.41
5760.46
5760.38
5760.2
5759.93
5759.57
5759.12
5758.51
5758.04
5757.45
5753.52
5748.65
5743.05
5738.8
5735.36
5732.92
5731.46
5731.1
5731.4
5730.49
5729.95
5729.83
5729.38
5725.04
5718.18
5712.16
5707.26
5704.05
5702.57
5702.41
5700.8
5697.6
5692.7
5687.18
5682.97
5681.86
5680.74
5679.71
5678.76
5677.86
5676.99
5676.09
5675.15
5674.14
5673.03
5671.82
5670.54
5669.24
5667.94
5666.72
5665.67
5664.93
5664.15
5660.53
5652.4
5645.14
5640.34
5637.96
5636.36
5636.6
5636.16
5635.67
5634.07
5629.4
5622.7
5619.2
5616.34
5612.7
5609.35
5605.82
5602.65
5600.17
5598.93
5597.24
5595.28
5593.14
5590.87
5588.5
5586.03
5583.5
5580.94
5578.58
5576.28
5574
5571.71
5569.4
5567.09
5564.78
5562.48
5560.2
5557.95
5555.7
5553.41
5550.98
5548.58
5546.27
5544.1
5542.23
5540.57
5539.07
5537.74
5536.67
5535.89
5535.45
5534.82
5531.97
5500.54
5453.11
5409.83
5368.7
5328.91
5290.04
5251.76
5213.8
5175.95
5137.95
5099.53
5060.23
5019.14
4991.41
4985.72
4985.43
4985.5
4985.59
4986.35
4996.85
5004.41
5004.98
5005.45
5005.62
5005.51
5005.21
5004.81
5004.39
5004.03
5003.77
5003.63
5746.7
5746.91
5747.35
5748.1
5749.24
5750.86
5752.88
5754.81
5756.38
5757.6
5758.52
5759.19
5759.65
5759.94
5760.09
5760.11
5760.04
5759.89
5759.67
5759.39
5759.01
5757.68
5752.07
5744.43
5738.88
5734.27
5730.8
5728.34
5726.9
5726.44
5727.06
5728.93
5729.74
5729.7
5729.28
5728.53
5723.09
5714.94
5708.22
5702.3
5698.93
5700.1
5700.66
5697.82
5691.22
5684.06
5680.94
5679.35
5678.88
5678.3
5677.72
5677.15
5676.58
5676
5675.38
5674.67
5673.85
5672.89
5671.76
5670.53
5669.27
5668.02
5666.86
5665.94
5665.37
5665.01
5659.27
5648.58
5639.62
5632.97
5628.7
5627.9
5630.92
5634.32
5634.3
5630.52
5623.63
5616.68
5613.89
5611.98
5609.2
5606.84
5603.71
5601.03
5599.36
5598.4
5596.9
5595.06
5592.99
5590.75
5588.38
5585.89
5583.25
5580.43
5578.23
5576.09
5573.9
5571.67
5569.41
5567.13
5564.85
5562.6
5560.37
5558.2
5556.07
5553.92
5551.22
5548.72
5546.29
5543.88
5542.15
5540.58
5539.1
5537.72
5536.61
5535.77
5535.31
5534.72
5520.98
5482.34
5439.18
5396.49
5355.09
5314.92
5275.74
5237.31
5199.43
5161.93
5124.66
5087.42
5049.87
5011.43
4988.2
4984.91
4985.05
4985.22
4985.44
4986.74
4991.87
4998.15
4998.63
4998.77
4998.53
4997.98
4997.26
4996.49
4995.77
4995.18
4994.77
4994.56
5742.72
5742.91
5743.34
5744.1
5745.38
5747.49
5750.66
5753.41
5755.38
5756.82
5757.88
5758.66
5759.2
5759.57
5759.8
5759.91
5759.93
5759.87
5759.78
5759.25
5754.45
5748.43
5740.3
5733.36
5728.15
5724.36
5721.78
5720.31
5719.9
5720.35
5721.76
5724.7
5727.98
5726.72
5726.9
5726.7
5719.27
5710.29
5703.48
5698.03
5695.95
5698.03
5698.61
5692.2
5682.47
5676.11
5676.17
5676.06
5675.98
5675.85
5675.69
5675.5
5675.28
5675.03
5674.72
5674.28
5673.68
5672.9
5671.76
5670.53
5669.27
5668
5666.72
5665.84
5665.22
5664.61
5657.21
5643.08
5631.79
5623.2
5616.85
5614.3
5616.09
5619.61
5624.78
5622.4
5616.81
5613.17
5611.6
5609.61
5607.39
5605.95
5603.71
5601.34
5599.8
5598.19
5596.59
5594.87
5592.68
5590.37
5588.14
5585.57
5582.22
5579.26
5577.81
5575.91
5573.82
5571.64
5569.4
5567.14
5564.88
5562.65
5560.47
5558.37
5556.45
5554.93
5551.58
5549.19
5545.72
5542.94
5541.87
5540.49
5538.99
5537.38
5536.22
5535.23
5534.67
5533.8
5512.14
5468.67
5424.79
5381.86
5340.26
5299.94
5260.68
5222.31
5184.66
5147.68
5111.33
5075.61
5040.42
5005.38
4985.85
4984.11
4984.5
4984.88
4985.4
4986.41
4988.22
4991.63
4992.57
4992.45
4991.71
4990.6
4989.33
4988.08
4986.99
4986.14
4985.55
4985.26
5738.5
5738.63
5738.93
5739.51
5740.63
5742.99
5748.8
5752.75
5754.88
5756.36
5757.48
5758.31
5758.9
5759.32
5759.59
5759.75
5759.86
5759.86
5755.92
5750.34
5742.19
5734.91
5727.36
5720.55
5716.03
5713.22
5711.65
5711.22
5712.05
5713.28
5714.94
5717.18
5720.09
5719
5719.44
5718.28
5710.62
5703.45
5697.37
5692.42
5690.54
5691.81
5690.61
5684.42
5676.62
5672.13
5671.71
5672.8
5673.12
5673.41
5673.65
5673.85
5674
5674.11
5674.14
5674.03
5673.66
5673.25
5672.33
5670.75
5669.06
5667.48
5666.17
5665.46
5664.46
5662.31
5653.4
5634.84
5621.26
5611.21
5603.66
5600.63
5600.42
5598.05
5607.73
5617.39
5613.58
5611.79
5611.65
5609.54
5607.14
5605.36
5603.92
5602.46
5595.52
5589.68
5586.42
5583.8
5581.34
5579.1
5576.93
5574.74
5572.97
5572.26
5570.97
5569.27
5567.42
5565.67
5564.53
5565.38