/*--------------------------------*- C++ -*----------------------------------*\
| =========                 |                                                 |
| \\      /  F ield         | OpenFOAM: The Open Source CFD Toolbox           |
|  \\    /   O peration     | Version:  2.1.0                                 |
|   \\  /    A nd           | Web:      www.OpenFOAM.org                      |
|    \\/     M anipulation  |                                                 |
\*---------------------------------------------------------------------------*/
FoamFile
{
    version     2.0;
    format      ascii;
    class       volScalarField;
    location    "56210";
    object      so;
}
// * * * * * * * * * * * * * * * * * * * * * * * * * * * * * * * * * * * * * //

dimensions      [0 0 0 0 0 0 0];

internalField   nonuniform List<scalar> 
15000
(
0.2
0.2
0.2
0.200007
0.200158
0.201175
0.20438
0.210469
0.218896
0.228628
0.238832
0.249012
0.258915
0.268423
0.27749
0.286104
0.294272
0.30201
0.309337
0.316276
0.322849
0.32908
0.334992
0.340606
0.345944
0.351026
0.355872
0.3605
0.364929
0.369173
0.373248
0.377168
0.380946
0.384593
0.388122
0.391541
0.39486
0.39809
0.401238
0.404312
0.40732
0.410269
0.413163
0.416007
0.418806
0.421564
0.424282
0.426964
0.429611
0.432225
0.434807
0.437356
0.439874
0.442359
0.444811
0.447229
0.449612
0.45196
0.454271
0.456545
0.458781
0.460978
0.463137
0.465258
0.46734
0.469386
0.471394
0.473368
0.475307
0.477213
0.479088
0.480933
0.482748
0.484536
0.486298
0.488035
0.489748
0.491439
0.493108
0.494756
0.496385
0.497994
0.499585
0.501157
0.502712
0.50425
0.505769
0.507271
0.508756
0.510222
0.511669
0.513097
0.514506
0.515895
0.517264
0.51861
0.519934
0.521235
0.52251
0.52376
0.524983
0.526178
0.527343
0.528478
0.529581
0.530651
0.531688
0.53269
0.533658
0.534591
0.535489
0.536352
0.537182
0.537979
0.538745
0.539481
0.540189
0.54087
0.541526
0.54216
0.542777
0.543386
0.543997
0.544626
0.54529
0.546007
0.546786
0.547605
0.548387
0.549033
0.549525
0.549882
0.550139
0.550396
0.550655
0.550921
0.551195
0.551479
0.551776
0.552089
0.552423
0.552785
0.553188
0.553645
0.554181
0.55483
0.55565
0.556756
0.558431
0.561815
0.2
0.2
0.2
0.200021
0.200309
0.20179
0.205719
0.212436
0.2212
0.231022
0.241174
0.251241
0.261012
0.270389
0.279335
0.287839
0.295911
0.303563
0.310815
0.317688
0.324202
0.330381
0.336245
0.341817
0.347115
0.352162
0.356974
0.361572
0.365971
0.370187
0.374236
0.378132
0.381886
0.385511
0.389017
0.392415
0.395714
0.398924
0.402053
0.405109
0.4081
0.411031
0.413908
0.416737
0.41952
0.422263
0.424967
0.427636
0.430271
0.432873
0.435445
0.437985
0.440494
0.442971
0.445416
0.447829
0.450207
0.452551
0.454858
0.457129
0.459363
0.461558
0.463715
0.465833
0.467913
0.469957
0.471964
0.473935
0.475872
0.477776
0.479649
0.481491
0.483304
0.485089
0.486849
0.488584
0.490295
0.491983
0.49365
0.495297
0.496923
0.498531
0.50012
0.501692
0.503246
0.504782
0.506302
0.507804
0.509289
0.510756
0.512205
0.513636
0.515049
0.516443
0.517817
0.519171
0.520504
0.521815
0.523103
0.524367
0.525607
0.526821
0.528008
0.529169
0.530302
0.531407
0.532484
0.533534
0.534557
0.535554
0.536526
0.537476
0.538407
0.539321
0.540221
0.541109
0.541987
0.542855
0.543714
0.544566
0.54542
0.546297
0.547229
0.548264
0.549465
0.550903
0.552632
0.554609
0.556538
0.557942
0.55885
0.559376
0.559627
0.559775
0.559829
0.559806
0.55975
0.559676
0.559574
0.559422
0.559212
0.558957
0.558686
0.558437
0.558257
0.558196
0.558321
0.558749
0.559761
0.562495
0.2
0.2
0.200006
0.200101
0.200773
0.203135
0.208117
0.215572
0.22464
0.234465
0.244471
0.254339
0.263902
0.273085
0.281854
0.290204
0.29814
0.305673
0.312821
0.319602
0.326035
0.33214
0.337938
0.343448
0.348691
0.353685
0.358449
0.363
0.367355
0.37153
0.37554
0.379397
0.383115
0.386704
0.390176
0.393541
0.396809
0.399988
0.403087
0.406114
0.409077
0.411981
0.414833
0.417636
0.420396
0.423117
0.4258
0.428449
0.431066
0.433653
0.436209
0.438736
0.441234
0.443701
0.446137
0.448542
0.450915
0.453253
0.455556
0.457823
0.460053
0.462245
0.464399
0.466515
0.468593
0.470633
0.472637
0.474605
0.476539
0.478439
0.480307
0.482145
0.483954
0.485735
0.487491
0.489221
0.490928
0.492613
0.494276
0.495918
0.497542
0.499146
0.500733
0.502302
0.503854
0.505389
0.506908
0.508411
0.509897
0.511366
0.512818
0.514253
0.515671
0.517071
0.518453
0.519817
0.521161
0.522485
0.523789
0.525072
0.526332
0.527571
0.528788
0.529982
0.531154
0.532305
0.533435
0.534546
0.535641
0.536722
0.537794
0.538861
0.539929
0.541005
0.542097
0.543211
0.544352
0.545521
0.546714
0.547926
0.549165
0.550465
0.551895
0.553556
0.555588
0.558168
0.561457
0.565471
0.569407
0.571644
0.572892
0.573527
0.573757
0.573694
0.573333
0.572716
0.572022
0.571309
0.570525
0.569592
0.568469
0.567197
0.565845
0.564504
0.563263
0.5622
0.561397
0.560971
0.561201
0.563218
0.200006
0.200019
0.200098
0.200517
0.202059
0.205728
0.211862
0.219941
0.229159
0.238856
0.248617
0.258207
0.267501
0.276438
0.284989
0.293149
0.300918
0.308306
0.315325
0.321993
0.328324
0.334338
0.340052
0.345486
0.350657
0.355584
0.360284
0.364775
0.369073
0.373194
0.37715
0.380957
0.384626
0.388168
0.391594
0.394915
0.39814
0.401277
0.404336
0.407324
0.410249
0.413117
0.415933
0.418703
0.421431
0.424121
0.426777
0.4294
0.431994
0.434559
0.437096
0.439606
0.442089
0.444544
0.44697
0.449366
0.451731
0.454064
0.456362
0.458625
0.460852
0.463041
0.465192
0.467304
0.469378
0.471415
0.473414
0.475378
0.477306
0.479201
0.481063
0.482896
0.484699
0.486474
0.488224
0.489948
0.491649
0.493328
0.494986
0.496623
0.498242
0.499842
0.501424
0.50299
0.50454
0.506073
0.507591
0.509094
0.51058
0.512052
0.513507
0.514946
0.51637
0.517778
0.51917
0.520545
0.521903
0.523244
0.524567
0.525871
0.527158
0.528427
0.529679
0.530914
0.532133
0.533339
0.534533
0.53572
0.536903
0.538088
0.539283
0.540498
0.541745
0.543038
0.544396
0.545839
0.547385
0.549046
0.550806
0.552605
0.554424
0.556313
0.558387
0.560822
0.563859
0.567814
0.573027
0.579833
0.586367
0.58847
0.58954
0.59008
0.590278
0.590007
0.589167
0.587708
0.586224
0.584841
0.583385
0.58163
0.579454
0.57695
0.574256
0.571541
0.568969
0.566673
0.564758
0.563346
0.562709
0.56397
0.200141
0.200283
0.200728
0.202006
0.204919
0.209986
0.217035
0.225454
0.234613
0.244053
0.253484
0.262738
0.271718
0.280374
0.288678
0.296622
0.304202
0.311424
0.318298
0.324835
0.33105
0.336958
0.342575
0.347919
0.353005
0.357852
0.362476
0.366894
0.371121
0.375174
0.379066
0.382809
0.386418
0.389902
0.393271
0.396537
0.399708
0.402793
0.405801
0.40874
0.411617
0.414438
0.41721
0.419937
0.422625
0.425277
0.427897
0.430488
0.433052
0.43559
0.438104
0.440594
0.44306
0.4455
0.447914
0.4503
0.452657
0.454984
0.457277
0.459536
0.461759
0.463945
0.466093
0.468202
0.470272
0.472304
0.474298
0.476255
0.478177
0.480065
0.481921
0.483746
0.485541
0.487309
0.489051
0.490767
0.492461
0.494132
0.495783
0.497413
0.499025
0.500619
0.502196
0.503758
0.505303
0.506834
0.50835
0.509852
0.51134
0.512814
0.514273
0.515717
0.517148
0.518565
0.519968
0.521356
0.52273
0.52409
0.525435
0.526765
0.528082
0.529386
0.530678
0.53196
0.533235
0.534504
0.535773
0.537048
0.538334
0.539643
0.540987
0.542383
0.543855
0.545431
0.547155
0.549076
0.551254
0.553739
0.556485
0.559194
0.561774
0.564318
0.56702
0.570142
0.574024
0.579103
0.585898
0.595518
0.60342
0.603706
0.604451
0.60479
0.604995
0.604767
0.603806
0.601464
0.599351
0.59773
0.596096
0.59395
0.590949
0.587314
0.583273
0.579071
0.575017
0.57135
0.568221
0.565759
0.564226
0.564729
0.201052
0.201631
0.202929
0.2055
0.209816
0.215923
0.22345
0.231892
0.24081
0.249894
0.25894
0.267824
0.276466
0.284821
0.292862
0.300574
0.307952
0.314996
0.321713
0.328109
0.334196
0.339988
0.345497
0.350739
0.355729
0.360484
0.36502
0.369353
0.373499
0.377472
0.381287
0.384957
0.388494
0.391908
0.395211
0.398411
0.401518
0.40454
0.407488
0.410367
0.413185
0.41595
0.418667
0.421342
0.42398
0.426586
0.429162
0.431714
0.434241
0.436748
0.439234
0.441699
0.444144
0.446568
0.448968
0.451344
0.453693
0.456013
0.458302
0.460557
0.462777
0.464961
0.467106
0.469211
0.471277
0.473304
0.475292
0.477242
0.479156
0.481036
0.482882
0.484698
0.486484
0.488242
0.489974
0.491682
0.493366
0.495028
0.496669
0.498291
0.499894
0.501481
0.503051
0.504606
0.506147
0.507674
0.509188
0.510689
0.512177
0.513653
0.515116
0.516566
0.518005
0.519431
0.520846
0.52225
0.523641
0.525022
0.526392
0.527752
0.529102
0.530445
0.531783
0.533118
0.534454
0.535795
0.537148
0.538522
0.539927
0.541379
0.542897
0.544511
0.54626
0.548201
0.550417
0.553023
0.556171
0.560039
0.56453
0.568468
0.571796
0.574801
0.577824
0.581215
0.58537
0.590757
0.597918
0.609144
0.613241
0.621439
0.628826
0.636737
0.641308
0.637603
0.627032
0.606538
0.605191
0.604625
0.60399
0.602713
0.599973
0.596114
0.591483
0.586139
0.580748
0.575791
0.57151
0.568053
0.565675
0.565474
0.203934
0.205219
0.207564
0.211306
0.216567
0.223172
0.230771
0.238998
0.247555
0.256227
0.264864
0.273366
0.281664
0.289714
0.297486
0.304962
0.312133
0.318994
0.325547
0.331796
0.33775
0.343418
0.348812
0.353945
0.358831
0.363484
0.367922
0.372159
0.376211
0.380094
0.383821
0.387407
0.390861
0.394196
0.397421
0.400546
0.403579
0.406529
0.409404
0.412213
0.414963
0.41766
0.420312
0.422924
0.425502
0.428051
0.430576
0.433079
0.435564
0.438032
0.440485
0.442922
0.445344
0.447748
0.450133
0.452498
0.454838
0.457153
0.459438
0.461691
0.463909
0.46609
0.468233
0.470336
0.472398
0.474419
0.4764
0.478343
0.480248
0.482117
0.483953
0.485758
0.487533
0.489279
0.491
0.492696
0.494369
0.496019
0.497649
0.49926
0.500854
0.50243
0.503991
0.505539
0.507073
0.508595
0.510105
0.511605
0.513093
0.514571
0.516039
0.517494
0.51894
0.520378
0.521806
0.523225
0.524637
0.526041
0.527438
0.528829
0.530217
0.531603
0.53299
0.534383
0.535786
0.537206
0.538652
0.540137
0.541675
0.543288
0.545009
0.54688
0.548966
0.551366
0.554225
0.557762
0.562317
0.568426
0.576003
0.581093
0.584705
0.587641
0.590431
0.593467
0.597112
0.601738
0.607727
0.619018
0.646182
0.787672
0.799398
0.799987
0.792993
0.699187
0.701782
0.703299
0.689662
0.6761
0.654505
0.632436
0.604915
0.601673
0.59776
0.591753
0.585376
0.579464
0.574309
0.57006
0.56698
0.566181
0.209456
0.211386
0.214511
0.218934
0.224587
0.231253
0.238655
0.246533
0.254676
0.262922
0.271152
0.27928
0.287243
0.294995
0.302504
0.309748
0.316714
0.323393
0.329783
0.335886
0.341705
0.347247
0.352523
0.357542
0.362316
0.366861
0.371191
0.375322
0.379271
0.383052
0.386681
0.390172
0.393534
0.39678
0.399918
0.402958
0.405907
0.408774
0.411567
0.414293
0.416961
0.419579
0.422153
0.424691
0.427198
0.429681
0.432143
0.43459
0.437023
0.439446
0.44186
0.444264
0.446659
0.449042
0.451411
0.453764
0.456096
0.458406
0.460688
0.46294
0.465159
0.46734
0.469482
0.471583
0.473641
0.475657
0.477631
0.479565
0.481459
0.483317
0.48514
0.486932
0.488693
0.490427
0.492134
0.493816
0.495475
0.497113
0.498729
0.500327
0.501907
0.503472
0.505022
0.506559
0.508085
0.5096
0.511106
0.512603
0.514091
0.51557
0.517042
0.518505
0.51996
0.521408
0.52285
0.524287
0.525719
0.527147
0.528573
0.529999
0.531426
0.532858
0.534299
0.535754
0.53723
0.538736
0.540283
0.541889
0.543575
0.545371
0.547322
0.549494
0.551983
0.554937
0.558584
0.563288
0.569687
0.579101
0.591845
0.59689
0.599912
0.602166
0.604218
0.606376
0.608892
0.612002
0.615974
0.627722
0.664645
0.744447
0.796104
0.799876
0.799946
0.796421
0.795174
0.793789
0.790493
0.788175
0.700672
0.688125
0.638866
0.616592
0.599272
0.593678
0.587763
0.581846
0.576373
0.571665
0.568092
0.566835
0.217156
0.219469
0.222966
0.227614
0.233276
0.239753
0.24683
0.254312
0.262036
0.269872
0.277719
0.285496
0.293144
0.300616
0.307877
0.314902
0.321673
0.328178
0.334413
0.340374
0.346062
0.351482
0.35664
0.361543
0.366204
0.370634
0.374849
0.378865
0.382699
0.386368
0.389888
0.393273
0.396534
0.399682
0.402724
0.405669
0.408525
0.411298
0.413995
0.416627
0.419201
0.421725
0.424209
0.426658
0.429082
0.431485
0.433874
0.436252
0.438625
0.440995
0.443362
0.445728
0.448092
0.450451
0.452803
0.455144
0.45747
0.459776
0.462058
0.464312
0.466532
0.468716
0.47086
0.472961
0.475017
0.477029
0.478995
0.480919
0.482801
0.484645
0.486453
0.488229
0.489975
0.491693
0.493385
0.495051
0.496695
0.498316
0.499917
0.501499
0.503063
0.504613
0.506149
0.507674
0.509189
0.510695
0.512194
0.513687
0.515173
0.516654
0.518129
0.519599
0.521062
0.522521
0.523978
0.525433
0.526887
0.528342
0.529799
0.53126
0.53273
0.534211
0.535709
0.537231
0.538786
0.540384
0.542043
0.543782
0.545631
0.547633
0.549847
0.552364
0.555318
0.55891
0.563453
0.569457
0.577938
0.591392
0.61084
0.614283
0.616715
0.618237
0.61938
0.620207
0.621082
0.622113
0.623479
0.638828
0.694802
0.772052
0.79811
0.799936
0.799998
0.799927
0.79987
0.799787
0.799645
0.799589
0.790749
0.788511
0.763876
0.621688
0.599583
0.594414
0.58895
0.583277
0.577791
0.572878
0.569005
0.567431
0.226075
0.228536
0.232114
0.236717
0.242198
0.248385
0.255103
0.262198
0.269533
0.276998
0.284498
0.291961
0.299326
0.306544
0.313579
0.320404
0.326997
0.333344
0.339435
0.345266
0.350834
0.35614
0.361185
0.365977
0.370524
0.374837
0.37893
0.382822
0.38653
0.390075
0.393474
0.396743
0.399894
0.402935
0.405874
0.408716
0.411467
0.414134
0.416724
0.419246
0.42171
0.424125
0.426501
0.428847
0.431171
0.43348
0.43578
0.438078
0.440378
0.442684
0.444998
0.447319
0.449648
0.45198
0.454314
0.456643
0.458963
0.461268
0.463553
0.465811
0.468039
0.470229
0.472379
0.474483
0.47654
0.478547
0.480506
0.482418
0.484286
0.486113
0.487904
0.489662
0.49139
0.49309
0.494764
0.496413
0.498038
0.499641
0.501223
0.502786
0.504332
0.505862
0.507381
0.50889
0.510391
0.511886
0.513376
0.514863
0.516347
0.517827
0.519306
0.520782
0.522253
0.523723
0.525195
0.526668
0.528146
0.529628
0.531119
0.532619
0.534134
0.535669
0.537229
0.538823
0.540463
0.542162
0.543941
0.545828
0.547859
0.550091
0.552603
0.555511
0.558982
0.563267
0.568744
0.576038
0.586483
0.60348
0.625513
0.652278
0.672406
0.69861
0.740091
0.775163
0.769642
0.73915
0.671622
0.678203
0.745031
0.796505
0.799849
0.799995
0.8
0.799998
0.799997
0.799993
0.799989
0.799988
0.79968
0.799564
0.797218
0.60473
0.599473
0.594797
0.589444
0.584104
0.57874
0.573778
0.569747
0.567975
0.235411
0.23788
0.241392
0.245837
0.251078
0.256964
0.263348
0.270098
0.277097
0.284241
0.291445
0.298637
0.305756
0.312755
0.319594
0.326245
0.332683
0.338893
0.344862
0.350581
0.356046
0.361252
0.366199
0.37089
0.375329
0.379525
0.383492
0.38725
0.39082
0.394227
0.397492
0.400633
0.403663
0.40659
0.409417
0.412148
0.414785
0.417333
0.419799
0.422194
0.424529
0.426816
0.429065
0.431288
0.433492
0.435688
0.437883
0.440084
0.442297
0.444527
0.446776
0.449044
0.451332
0.453635
0.455948
0.458266
0.460582
0.462889
0.465181
0.46745
0.469689
0.471892
0.474053
0.476166
0.478234
0.48025
0.482207
0.484106
0.485957
0.487765
0.489535
0.491271
0.492978
0.494658
0.496312
0.49794
0.499544
0.501124
0.502683
0.504221
0.505742
0.507248
0.508744
0.510231
0.511713
0.513192
0.51467
0.516148
0.517627
0.519106
0.520586
0.522068
0.523551
0.525032
0.526519
0.528013
0.529514
0.531026
0.532551
0.534094
0.535657
0.537248
0.538875
0.540547
0.542278
0.544087
0.545999
0.548049
0.550285
0.552777
0.555621
0.558957
0.562982
0.567979
0.574373
0.582884
0.595191
0.615524
0.636669
0.689962
0.765829
0.79896
0.799989
0.7999
0.797016
0.795092
0.797382
0.78209
0.794408
0.799642
0.799986
0.8
0.8
0.8
0.8
0.8
0.8
0.8
0.799993
0.799992
0.761959
0.604162
0.59948
0.595088
0.589885
0.584641
0.579403
0.574458
0.57036
0.568479
0.24467
0.247086
0.250482
0.254748
0.259759
0.26538
0.271486
0.277955
0.28468
0.291567
0.298531
0.305502
0.312422
0.31924
0.325919
0.332428
0.338742
0.344843
0.350717
0.356352
0.36174
0.366874
0.371747
0.376355
0.380701
0.384788
0.388627
0.392241
0.395657
0.398906
0.402019
0.405019
0.407919
0.410723
0.413432
0.416043
0.418554
0.420968
0.423293
0.425539
0.427721
0.429854
0.431951
0.434026
0.436087
0.438146
0.440212
0.442294
0.4444
0.446537
0.448707
0.450913
0.453152
0.455421
0.457712
0.46002
0.462335
0.464649
0.466953
0.46924
0.471499
0.473724
0.475905
0.478055
0.480153
0.482187
0.484153
0.486046
0.487875
0.489656
0.491398
0.493107
0.494787
0.496442
0.498072
0.499676
0.501255
0.502808
0.504338
0.505846
0.507336
0.508811
0.510275
0.511734
0.51319
0.514648
0.516108
0.517573
0.519043
0.520518
0.521999
0.523485
0.524977
0.526468
0.52797
0.529483
0.53101
0.532552
0.534115
0.535701
0.537316
0.538968
0.540666
0.542423
0.544257
0.546189
0.548251
0.550486
0.552953
0.555734
0.558942
0.562731
0.567316
0.573002
0.580248
0.589878
0.604049
0.627881
0.644972
0.734549
0.798758
0.799988
0.8
0.8
0.799968
0.799906
0.799907
0.799171
0.799696
0.799984
0.799999
0.8
0.8
0.8
0.8
0.8
0.8
0.8
0.8
0.797997
0.675761
0.604257
0.59963
0.595336
0.590277
0.585101
0.579897
0.574995
0.570883
0.568953
0.253587
0.255935
0.259217
0.263329
0.268155
0.273576
0.279474
0.285736
0.292262
0.298959
0.305746
0.312554
0.319324
0.326008
0.332567
0.338972
0.345199
0.351228
0.357045
0.362636
0.367987
0.373088
0.377927
0.382493
0.386776
0.390772
0.39449
0.397948
0.401186
0.40425
0.407185
0.410021
0.412776
0.415449
0.418034
0.420518
0.422892
0.425155
0.427314
0.429383
0.43138
0.433326
0.435238
0.437131
0.439016
0.440907
0.442812
0.444746
0.446718
0.448738
0.450812
0.45294
0.455122
0.45735
0.459618
0.461916
0.464233
0.46656
0.468885
0.471198
0.473489
0.475748
0.477993
0.480194
0.482335
0.484402
0.486382
0.488272
0.490073
0.49182
0.493525
0.495199
0.496849
0.498475
0.500078
0.501655
0.503206
0.504729
0.506225
0.507697
0.509147
0.510581
0.512006
0.513426
0.514848
0.516276
0.517713
0.51916
0.520618
0.522086
0.523564
0.525052
0.526551
0.528058
0.529572
0.531104
0.532656
0.53423
0.535831
0.537464
0.539137
0.540857
0.542636
0.544491
0.546443
0.548518
0.550754
0.553202
0.555928
0.559025
0.562612
0.566853
0.571968
0.578271
0.586251
0.596873
0.613012
0.641299
0.652891
0.772695
0.799145
0.799984
0.8
0.8
0.8
0.799999
0.799998
0.799978
0.799992
0.8
0.8
0.8
0.8
0.8
0.8
0.8
0.8
0.799998
0.799842
0.787354
0.651939
0.604423
0.599805
0.595546
0.590587
0.585497
0.580347
0.575454
0.571345
0.569409
0.262032
0.264319
0.267515
0.271521
0.276229
0.281524
0.287296
0.293436
0.299843
0.306425
0.313103
0.319808
0.326483
0.333082
0.339569
0.345916
0.352101
0.358106
0.363916
0.369517
0.374893
0.380028
0.384902
0.389492
0.393863
0.397921
0.401537
0.404828
0.407846
0.410665
0.41336
0.415983
0.418556
0.421078
0.423526
0.42587
0.428088
0.43017
0.432122
0.433962
0.435717
0.437417
0.439088
0.440746
0.442405
0.444076
0.445773
0.447511
0.449308
0.451175
0.453123
0.455153
0.457262
0.459442
0.461683
0.463971
0.466295
0.468641
0.470996
0.47335
0.475689
0.478022
0.480347
0.482634
0.484861
0.487003
0.489029
0.490921
0.492685
0.494383
0.496038
0.497665
0.499274
0.500866
0.502439
0.503986
0.505503
0.506989
0.508443
0.509866
0.511263
0.512641
0.514009
0.515375
0.516748
0.518133
0.519536
0.520957
0.522396
0.523851
0.525324
0.526811
0.528314
0.529833
0.53136
0.532911
0.534489
0.536099
0.537745
0.539433
0.541172
0.542974
0.544852
0.546825
0.548918
0.551163
0.553602
0.556289
0.559297
0.562719
0.566678
0.571333
0.576903
0.583701
0.592244
0.603643
0.621586
0.653864
0.715345
0.787293
0.799727
0.799996
0.8
0.8
0.8
0.8
0.8
0.8
0.8
0.8
0.8
0.8
0.8
0.8
0.8
0.8
0.8
0.799995
0.799711
0.787164
0.634192
0.604445
0.599907
0.595699
0.590839
0.585831
0.580744
0.575887
0.571795
0.569859
0.269946
0.272192
0.275342
0.279302
0.283966
0.289224
0.294962
0.301071
0.307447
0.313996
0.320638
0.327305
0.333944
0.340513
0.34698
0.353321
0.35952
0.365562
0.371435
0.377126
0.382619
0.387894
0.393069
0.39837
0.403566
0.408443
0.412653
0.41567
0.418247
0.420532
0.422696
0.424849
0.427042
0.429268
0.431474
0.433585
0.435537
0.437303
0.438885
0.440311
0.441628
0.442893
0.444147
0.445412
0.446701
0.448022
0.449389
0.450823
0.452349
0.453986
0.455747
0.457633
0.459638
0.461749
0.463952
0.466227
0.468559
0.470932
0.47333
0.47574
0.478148
0.480599
0.483054
0.485498
0.487904
0.490224
0.492383
0.49431
0.496018
0.497638
0.499209
0.500762
0.502312
0.50386
0.505396
0.506907
0.508384
0.50982
0.511216
0.51257
0.513889
0.515181
0.516459
0.517738
0.519033
0.520351
0.521698
0.523076
0.524484
0.525917
0.527375
0.528855
0.530358
0.531883
0.533425
0.534992
0.536598
0.538247
0.539945
0.541701
0.543524
0.545427
0.547428
0.549547
0.551811
0.554255
0.55692
0.559864
0.563155
0.566885
0.57117
0.576163
0.582073
0.589212
0.598121
0.610056
0.629481
0.663285
0.748131
0.792535
0.799839
0.799997
0.8
0.8
0.8
0.8
0.8
0.8
0.8
0.8
0.8
0.8
0.8
0.8
0.8
0.8
0.8
0.799994
0.799765
0.79343
0.609889
0.604094
0.599896
0.595803
0.591057
0.586135
0.581113
0.576303
0.57224
0.57031
0.277303
0.279534
0.282687
0.28667
0.291377
0.296695
0.302505
0.308687
0.31513
0.321734
0.328419
0.335117
0.341783
0.34838
0.354885
0.361283
0.367565
0.373725
0.379758
0.385659
0.391418
0.397293
0.403697
0.410408
0.417488
0.42447
0.430834
0.434044
0.435843
0.437017
0.43806
0.439238
0.440688
0.44241
0.444283
0.4461
0.447671
0.448918
0.449837
0.450473
0.450921
0.451319
0.45176
0.452278
0.452876
0.453553
0.45432
0.455205
0.456247
0.457479
0.458917
0.460558
0.462389
0.464385
0.466521
0.468769
0.471105
0.473509
0.475961
0.478447
0.480977
0.483591
0.486265
0.488999
0.491775
0.494524
0.497058
0.499102
0.500722
0.502193
0.503607
0.505024
0.506472
0.507952
0.509441
0.510907
0.51233
0.513698
0.515007
0.516255
0.517447
0.518592
0.519713
0.520838
0.521991
0.523189
0.524439
0.525741
0.52709
0.52848
0.529907
0.531367
0.532859
0.534383
0.535942
0.53752
0.539154
0.540847
0.542608
0.544445
0.54637
0.548396
0.550544
0.552835
0.555295
0.557957
0.56086
0.564051
0.567596
0.571576
0.576101
0.581314
0.587422
0.594738
0.60383
0.6161
0.636808
0.670216
0.771379
0.798185
0.799959
0.799999
0.8
0.8
0.8
0.8
0.8
0.8
0.8
0.8
0.8
0.8
0.8
0.8
0.8
0.8
0.8
0.799984
0.79933
0.779247
0.609165
0.603976
0.599955
0.595935
0.591284
0.586438
0.581479
0.576716
0.572687
0.570762
0.284109
0.286362
0.289573
0.293649
0.298474
0.303936
0.309985
0.316367
0.322989
0.329746
0.336555
0.343356
0.350113
0.356801
0.363411
0.369941
0.376396
0.382786
0.389124
0.395423
0.401874
0.409534
0.418277
0.428111
0.439272
0.449851
0.46085
0.464592
0.465112
0.46394
0.462679
0.461924
0.462037
0.463085
0.464995
0.467933
0.469148
0.469649
0.469421
0.46852
0.467149
0.465724
0.4645
0.46354
0.462805
0.462246
0.461854
0.461672
0.461777
0.462231
0.463059
0.464247
0.465757
0.467542
0.46955
0.471736
0.47406
0.476492
0.479009
0.481596
0.484313
0.487166
0.490184
0.493411
0.496887
0.500562
0.504021
0.506281
0.507738
0.508894
0.509985
0.51113
0.512397
0.513788
0.51524
0.516672
0.518039
0.519324
0.520516
0.521609
0.522597
0.523493
0.524331
0.525174
0.526069
0.527047
0.52812
0.529286
0.530531
0.531843
0.533211
0.534627
0.536088
0.537595
0.539151
0.540747
0.542398
0.544133
0.545959
0.547887
0.549927
0.552096
0.55441
0.556892
0.559562
0.562444
0.565565
0.568962
0.572687
0.576816
0.581454
0.586746
0.592898
0.600234
0.609361
0.621849
0.643914
0.67518
0.784398
0.79976
0.799996
0.8
0.8
0.8
0.8
0.8
0.8
0.8
0.8
0.8
0.8
0.8
0.8
0.8
0.8
0.8
0.8
0.799972
0.797819
0.709651
0.60924
0.604095
0.600123
0.596132
0.591551
0.586766
0.581859
0.577137
0.573136
0.571217
0.290391
0.292724
0.296079
0.300356
0.305427
0.311155
0.317456
0.324074
0.330888
0.338108
0.345211
0.352191
0.359105
0.365953
0.372745
0.379501
0.386252
0.393036
0.399903
0.406916
0.415738
0.426724
0.440272
0.454392
0.470503
0.482018
0.495815
0.498322
0.49801
0.493894
0.490077
0.487271
0.48616
0.487111
0.491692
0.498384
0.50116
0.501337
0.500014
0.497092
0.49274
0.488245
0.48435
0.481133
0.478381
0.475889
0.47358
0.471532
0.469942
0.468979
0.468703
0.469082
0.47003
0.471444
0.473226
0.475293
0.477578
0.480032
0.482624
0.485339
0.488272
0.491448
0.494947
0.498896
0.503481
0.508765
0.513962
0.516242
0.517403
0.517919
0.518422
0.519102
0.520106
0.521451
0.52326
0.524902
0.526252
0.527468
0.528541
0.529445
0.530153
0.530653
0.530993
0.531336
0.531774
0.532373
0.53315
0.534093
0.535173
0.53636
0.53763
0.538968
0.540367
0.541829
0.54336
0.54497
0.54662
0.548388
0.550277
0.552296
0.554454
0.556767
0.559251
0.561922
0.564792
0.567868
0.571154
0.574668
0.578455
0.582589
0.587185
0.5924
0.598449
0.605673
0.61473
0.627447
0.651461
0.678748
0.78774
0.799773
0.799997
0.8
0.8
0.8
0.8
0.8
0.8
0.8
0.8
0.8
0.8
0.8
0.8
0.8
0.8
0.799999
0.79999
0.799218
0.776903
0.663069
0.609429
0.604313
0.60037
0.596401
0.591874
0.587138
0.58227
0.577576
0.573592
0.571674
0.296162
0.298642
0.302242
0.306853
0.312331
0.318501
0.325211
0.332204
0.339343
0.346737
0.354029
0.36183
0.368997
0.376084
0.383154
0.390268
0.397496
0.404932
0.412704
0.422036
0.434755
0.452268
0.472326
0.487385
0.504681
0.510169
0.514849
0.535717
0.540918
0.50565
0.503415
0.501511
0.501032
0.503133
0.511363
0.522583
0.525839
0.52793
0.527525
0.524845
0.518696
0.511868
0.506209
0.501672
0.497641
0.493606
0.489336
0.484956
0.480983
0.477922
0.475994
0.475169
0.475292
0.476173
0.477635
0.479535
0.481762
0.484238
0.48692
0.489794
0.492972
0.496507
0.500541
0.505314
0.511261
0.518478
0.525295
0.526979
0.52778
0.527314
0.527133
0.527286
0.528078
0.529644
0.53315
0.535376
0.536952
0.538182
0.539221
0.540017
0.540479
0.540491
0.540039
0.539596
0.539321
0.539347
0.539707
0.540357
0.541229
0.542262
0.543408
0.544638
0.545939
0.547317
0.54879
0.550373
0.552063
0.553842
0.555779
0.557875
0.560138
0.562578
0.565207
0.568038
0.571072
0.574293
0.577658
0.581169
0.584866
0.588832
0.593222
0.598217
0.604042
0.611042
0.619955
0.63302
0.660587
0.68273
0.788274
0.799762
0.799996
0.8
0.8
0.8
0.8
0.8
0.8
0.8
0.8
0.8
0.8
0.8
0.8
0.8
0.799989
0.799877
0.797868
0.780649
0.726709
0.63758
0.609497
0.604535
0.600667
0.596742
0.592269
0.587571
0.582727
0.57804
0.574055
0.572132
0.301445
0.304149
0.308115
0.313237
0.319337
0.326177
0.333501
0.341029
0.348618
0.356298
0.363895
0.371769
0.379751
0.387528
0.395037
0.402707
0.410706
0.419235
0.428577
0.443187
0.462455
0.48802
0.510438
0.518724
0.52564
0.635268
0.774703
0.791867
0.775974
0.753275
0.558915
0.51339
0.512393
0.515879
0.530023
0.537362
0.575201
0.680598
0.694369
0.579267
0.528835
0.523721
0.519992
0.517171
0.514362
0.510829
0.50606
0.499984
0.493544
0.488087
0.484238
0.482025
0.481214
0.48151
0.482641
0.484389
0.486587
0.489118
0.491917
0.494974
0.498376
0.502206
0.506659
0.512107
0.519322
0.527738
0.532841
0.545224
0.553195
0.534444
0.53402
0.533821
0.534602
0.537437
0.544788
0.548713
0.550462
0.551792
0.553789
0.554675
0.555075
0.554566
0.552552
0.55069
0.549182
0.548286
0.548056
0.548346
0.54899
0.549859
0.550869
0.551964
0.553122
0.554355
0.555716
0.557238
0.558929
0.560709
0.562665
0.564788
0.567084
0.569563
0.572244
0.575148
0.578285
0.581622
0.584991
0.58838
0.591832
0.595446
0.599488
0.604168
0.609686
0.616361
0.625016
0.638422
0.670729
0.772465
0.798894
0.799981
0.8
0.8
0.8
0.8
0.8
0.8
0.8
0.8
0.8
0.8
0.8
0.8
0.8
0.8
0.79999
0.799756
0.795087
0.76765
0.701858
0.614441
0.609224
0.604733
0.601025
0.597176
0.592758
0.588087
0.583225
0.57854
0.574541
0.572596
0.306271
0.309286
0.313776
0.319653
0.326694
0.334529
0.342737
0.35099
0.359153
0.367235
0.375202
0.383266
0.391425
0.400215
0.408961
0.417561
0.426849
0.437287
0.452352
0.477452
0.50116
0.527698
0.536126
0.612092
0.769
0.795901
0.799595
0.799896
0.799714
0.799383
0.789807
0.579097
0.527986
0.532738
0.550369
0.708559
0.79778
0.798904
0.798517
0.787393
0.566554
0.531021
0.529492
0.528948
0.528169
0.526316
0.522408
0.515327
0.505968
0.497919
0.492221
0.488769
0.487173
0.48702
0.487949
0.489665
0.491941
0.49461
0.497569
0.500809
0.504348
0.508284
0.512847
0.518589
0.526791
0.535554
0.596332
0.788517
0.793686
0.773934
0.586095
0.541816
0.541802
0.545437
0.553596
0.611504
0.774111
0.756163
0.794367
0.799208
0.778133
0.603384
0.559012
0.557689
0.556313
0.555421
0.555319
0.55577
0.556554
0.557523
0.558583
0.559667
0.560737
0.56182
0.563065
0.564526
0.566202
0.56807
0.570035
0.572155
0.574436
0.576905
0.5796
0.582582
0.585923
0.589625
0.593031
0.596246
0.599328
0.602388
0.606006
0.610371
0.61556
0.621792
0.630026
0.643531
0.679326
0.784563
0.799532
0.799992
0.8
0.8
0.8
0.8
0.8
0.8
0.8
0.8
0.8
0.8
0.8
0.8
0.8
0.8
0.799995
0.799864
0.794751
0.772435
0.7088
0.614105
0.609321
0.605108
0.601524
0.597752
0.593312
0.588677
0.583824
0.579115
0.575069
0.57307
0.310673
0.314094
0.319317
0.326322
0.334815
0.344163
0.353625
0.362829
0.371692
0.380272
0.388654
0.397026
0.405543
0.414624
0.425137
0.435977
0.447628
0.461882
0.494778
0.531406
0.548617
0.558051
0.749211
0.793171
0.799282
0.799939
0.799996
0.799999
0.799997
0.799995
0.799846
0.760663
0.639181
0.557658
0.59773
0.770934
0.799486
0.799991
0.799991
0.79987
0.781697
0.558259
0.620408
0.665434
0.648122
0.586892
0.550094
0.518983
0.510662
0.503493
0.497897
0.494236
0.492441
0.492226
0.493249
0.495186
0.497756
0.500721
0.503892
0.507277
0.510815
0.51458
0.518773
0.524175
0.532366
0.658396
0.793313
0.799835
0.799948
0.799572
0.788624
0.573478
0.547073
0.554678
0.563351
0.633229
0.792914
0.799324
0.799933
0.799986
0.799824
0.79715
0.793249
0.611255
0.561139
0.56055
0.561109
0.562088
0.56326
0.564513
0.565771
0.566958
0.567994
0.568871
0.57001
0.57146
0.573163
0.575065
0.577081
0.57926
0.581609
0.58417
0.58701
0.590267
0.594202
0.599109
0.602442
0.60539
0.607925
0.610591
0.613821
0.617747
0.622458
0.627963
0.635623
0.64922
0.689062
0.790661
0.799769
0.799996
0.8
0.8
0.8
0.8
0.8
0.8
0.8
0.8
0.8
0.8
0.8
0.8
0.8
0.8
0.799992
0.799869
0.798672
0.794362
0.78526
0.61451
0.609784
0.605713
0.602169
0.598407
0.594039
0.589427
0.584558
0.579788
0.575652
0.573554
0.314684
0.318599
0.324824
0.333552
0.344421
0.356235
0.36751
0.377945
0.387617
0.39674
0.40556
0.414355
0.423424
0.433195
0.444355
0.459169
0.47658
0.500933
0.560444
0.577069
0.69527
0.780584
0.798233
0.799869
0.79999
0.799999
0.8
0.8
0.8
0.8
0.799996
0.799162
0.73381
0.574294
0.651124
0.786181
0.799757
0.799997
0.8
0.799999
0.647698
0.587349
0.722501
0.793729
0.788101
0.633783
0.573356
0.521866
0.513542
0.507
0.501838
0.49844
0.496888
0.49701
0.498514
0.501061
0.504296
0.50806
0.511488
0.514958
0.518357
0.521753
0.525342
0.529826
0.536898
0.70728
0.796172
0.799933
0.799999
0.799993
0.79972