/*--------------------------------*- C++ -*----------------------------------*\
| =========                 |                                                 |
| \\      /  F ield         | OpenFOAM: The Open Source CFD Toolbox           |
|  \\    /   O peration     | Version:  2.1.0                                 |
|   \\  /    A nd           | Web:      www.OpenFOAM.org                      |
|    \\/     M anipulation  |                                                 |
\*---------------------------------------------------------------------------*/
FoamFile
{
    version     2.0;
    format      ascii;
    class       volScalarField;
    location    "56210";
    object      sw;
}
// * * * * * * * * * * * * * * * * * * * * * * * * * * * * * * * * * * * * * //

dimensions      [0 0 0 0 0 0 0];

internalField   nonuniform List<scalar> 
15000
(
0.8
0.8
0.8
0.799993
0.799842
0.798825
0.79562
0.789531
0.781104
0.771372
0.761168
0.750988
0.741085
0.731577
0.72251
0.713896
0.705728
0.69799
0.690663
0.683724
0.677151
0.67092
0.665008
0.659394
0.654056
0.648974
0.644128
0.6395
0.635071
0.630827
0.626752
0.622832
0.619054
0.615407
0.611878
0.608459
0.60514
0.60191
0.598762
0.595688
0.59268
0.589731
0.586837
0.583993
0.581194
0.578436
0.575718
0.573036
0.570389
0.567775
0.565193
0.562644
0.560126
0.557641
0.555189
0.552771
0.550388
0.54804
0.545729
0.543455
0.541219
0.539022
0.536863
0.534742
0.53266
0.530614
0.528606
0.526632
0.524693
0.522787
0.520912
0.519067
0.517252
0.515464
0.513702
0.511965
0.510252
0.508561
0.506892
0.505244
0.503615
0.502006
0.500415
0.498843
0.497288
0.49575
0.494231
0.492729
0.491244
0.489778
0.488331
0.486903
0.485494
0.484105
0.482736
0.48139
0.480066
0.478765
0.47749
0.47624
0.475017
0.473822
0.472657
0.471522
0.470419
0.469349
0.468312
0.46731
0.466342
0.465409
0.464511
0.463648
0.462818
0.462021
0.461255
0.460519
0.459811
0.45913
0.458474
0.45784
0.457223
0.456614
0.456003
0.455374
0.45471
0.453993
0.453214
0.452395
0.451613
0.450967
0.450475
0.450118
0.449861
0.449604
0.449345
0.449079
0.448805
0.448521
0.448224
0.447911
0.447577
0.447215
0.446812
0.446355
0.445819
0.44517
0.44435
0.443244
0.441569
0.438185
0.8
0.8
0.8
0.799979
0.799691
0.79821
0.794281
0.787564
0.7788
0.768978
0.758826
0.748759
0.738988
0.729611
0.720665
0.712161
0.704089
0.696437
0.689185
0.682312
0.675798
0.669619
0.663755
0.658183
0.652885
0.647838
0.643026
0.638428
0.634029
0.629813
0.625764
0.621868
0.618114
0.614489
0.610983
0.607585
0.604286
0.601076
0.597947
0.594891
0.5919
0.588969
0.586092
0.583263
0.58048
0.577737
0.575033
0.572364
0.569729
0.567127
0.564555
0.562015
0.559506
0.557029
0.554584
0.552171
0.549793
0.547449
0.545142
0.542871
0.540637
0.538442
0.536285
0.534167
0.532087
0.530043
0.528036
0.526065
0.524128
0.522224
0.520351
0.518509
0.516696
0.514911
0.513151
0.511416
0.509705
0.508017
0.50635
0.504703
0.503077
0.501469
0.49988
0.498308
0.496754
0.495218
0.493698
0.492196
0.490711
0.489244
0.487795
0.486364
0.484951
0.483557
0.482183
0.480829
0.479496
0.478185
0.476897
0.475633
0.474393
0.473179
0.471992
0.470831
0.469698
0.468593
0.467516
0.466466
0.465443
0.464446
0.463474
0.462524
0.461593
0.460679
0.459779
0.458891
0.458013
0.457145
0.456286
0.455434
0.45458
0.453703
0.452771
0.451736
0.450535
0.449097
0.447368
0.445391
0.443462
0.442058
0.44115
0.440624
0.440373
0.440225
0.440171
0.440194
0.44025
0.440324
0.440426
0.440578
0.440788
0.441043
0.441314
0.441563
0.441743
0.441804
0.441679
0.441251
0.440239
0.437505
0.8
0.8
0.799994
0.799899
0.799227
0.796865
0.791883
0.784428
0.77536
0.765535
0.755529
0.745661
0.736098
0.726915
0.718146
0.709796
0.70186
0.694327
0.687179
0.680398
0.673965
0.66786
0.662062
0.656552
0.651309
0.646315
0.641551
0.637
0.632645
0.62847
0.62446
0.620603
0.616885
0.613296
0.609824
0.606459
0.603191
0.600012
0.596913
0.593886
0.590923
0.588019
0.585167
0.582364
0.579604
0.576883
0.5742
0.571551
0.568934
0.566347
0.563791
0.561264
0.558766
0.556299
0.553863
0.551458
0.549085
0.546747
0.544444
0.542177
0.539947
0.537755
0.535601
0.533485
0.531407
0.529367
0.527363
0.525395
0.523461
0.521561
0.519693
0.517855
0.516046
0.514265
0.512509
0.510779
0.509072
0.507387
0.505724
0.504082
0.502458
0.500854
0.499267
0.497698
0.496146
0.494611
0.493092
0.491589
0.490103
0.488634
0.487182
0.485747
0.484329
0.482929
0.481547
0.480183
0.478839
0.477515
0.476211
0.474928
0.473668
0.472429
0.471212
0.470018
0.468846
0.467695
0.466565
0.465454
0.464359
0.463278
0.462206
0.461139
0.460071
0.458995
0.457903
0.456789
0.455648
0.454479
0.453286
0.452074
0.450835
0.449535
0.448105
0.446444
0.444412
0.441832
0.438543
0.434529
0.430593
0.428356
0.427108
0.426473
0.426243
0.426306
0.426667
0.427284
0.427978
0.428691
0.429475
0.430408
0.431531
0.432803
0.434155
0.435496
0.436737
0.4378
0.438603
0.439029
0.438799
0.436782
0.799994
0.799981
0.799902
0.799483
0.797941
0.794272
0.788138
0.780059
0.770841
0.761144
0.751383
0.741793
0.732499
0.723562
0.715011
0.706851
0.699082
0.691694
0.684675
0.678007
0.671676
0.665662
0.659948
0.654514
0.649343
0.644416
0.639716
0.635225
0.630927
0.626806
0.62285
0.619043
0.615374
0.611832
0.608406
0.605085
0.60186
0.598723
0.595664
0.592676
0.589751
0.586883
0.584067
0.581297
0.578569
0.575879
0.573223
0.5706
0.568006
0.565441
0.562904
0.560394
0.557911
0.555456
0.55303
0.550634
0.548269
0.545936
0.543638
0.541375
0.539148
0.536959
0.534808
0.532696
0.530622
0.528585
0.526586
0.524622
0.522694
0.520799
0.518937
0.517104
0.515301
0.513526
0.511776
0.510052
0.508351
0.506672
0.505014
0.503377
0.501758
0.500158
0.498576
0.49701
0.49546
0.493927
0.492409
0.490906
0.48942
0.487948
0.486493
0.485054
0.48363
0.482222
0.48083
0.479455
0.478097
0.476756
0.475433
0.474129
0.472842
0.471573
0.470321
0.469086
0.467867
0.466661
0.465467
0.46428
0.463097
0.461912
0.460717
0.459502
0.458255
0.456962
0.455604
0.454161
0.452615
0.450954
0.449194
0.447395
0.445576
0.443687
0.441613
0.439178
0.436141
0.432186
0.426973
0.420167
0.413633
0.41153
0.41046
0.40992
0.409722
0.409993
0.410833
0.412292
0.413776
0.415159
0.416615
0.41837
0.420546
0.42305
0.425744
0.428459
0.431031
0.433327
0.435242
0.436654
0.437291
0.43603
0.799859
0.799717
0.799272
0.797994
0.795081
0.790014
0.782965
0.774546
0.765387
0.755947
0.746516
0.737262
0.728282
0.719626
0.711322
0.703378
0.695798
0.688576
0.681702
0.675165
0.66895
0.663042
0.657425
0.652081
0.646995
0.642148
0.637524
0.633106
0.628879
0.624826
0.620934
0.617191
0.613582
0.610098
0.606729
0.603463
0.600292
0.597207
0.594199
0.59126
0.588383
0.585562
0.58279
0.580063
0.577375
0.574723
0.572103
0.569512
0.566948
0.56441
0.561896
0.559406
0.55694
0.5545
0.552086
0.5497
0.547343
0.545016
0.542723
0.540464
0.538241
0.536055
0.533907
0.531798
0.529728
0.527696
0.525702
0.523745
0.521823
0.519935
0.518079
0.516254
0.514459
0.512691
0.510949
0.509233
0.507539
0.505868
0.504217
0.502587
0.500975
0.499381
0.497804
0.496242
0.494697
0.493166
0.49165
0.490148
0.48866
0.487186
0.485727
0.484283
0.482852
0.481435
0.480032
0.478644
0.47727
0.47591
0.474565
0.473235
0.471918
0.470614
0.469322
0.46804
0.466765
0.465496
0.464227
0.462952
0.461666
0.460357
0.459013
0.457617
0.456145
0.454569
0.452845
0.450924
0.448746
0.446261
0.443515
0.440806
0.438226
0.435682
0.43298
0.429858
0.425976
0.420897
0.414102
0.404482
0.39658
0.396294
0.395549
0.39521
0.395005
0.395233
0.396194
0.398536
0.400649
0.40227
0.403904
0.40605
0.409051
0.412686
0.416727
0.420929
0.424983
0.42865
0.431779
0.434241
0.435774
0.435271
0.798948
0.798369
0.797071
0.7945
0.790184
0.784077
0.77655
0.768108
0.75919
0.750106
0.74106
0.732176
0.723534
0.715179
0.707138
0.699426
0.692048
0.685004
0.678287
0.671891
0.665804
0.660012
0.654503
0.649261
0.644271
0.639516
0.63498
0.630647
0.626501
0.622528
0.618713
0.615043
0.611506
0.608092
0.604789
0.601589
0.598482
0.59546
0.592512
0.589633
0.586815
0.58405
0.581333
0.578658
0.57602
0.573414
0.570838
0.568286
0.565759
0.563252
0.560766
0.558301
0.555856
0.553432
0.551032
0.548656
0.546307
0.543987
0.541698
0.539443
0.537223
0.535039
0.532894
0.530789
0.528723
0.526696
0.524708
0.522758
0.520844
0.518964
0.517118
0.515302
0.513516
0.511758
0.510026
0.508318
0.506634
0.504972
0.503331
0.501709
0.500106
0.498519
0.496949
0.495394
0.493853
0.492326
0.490812
0.489311
0.487823
0.486347
0.484884
0.483434
0.481995
0.480569
0.479154
0.47775
0.476359
0.474978
0.473608
0.472248
0.470898
0.469555
0.468217
0.466882
0.465546
0.464205
0.462852
0.461478
0.460073
0.458621
0.457103
0.455489
0.45374
0.451799
0.449583
0.446977
0.443829
0.439961
0.43547
0.431532
0.428204
0.425199
0.422176
0.418785
0.41463
0.409243
0.402082
0.390856
0.386759
0.378561
0.371174
0.363263
0.358692
0.362397
0.372968
0.393462
0.394809
0.395375
0.39601
0.397287
0.400027
0.403886
0.408517
0.413861
0.419252
0.424209
0.42849
0.431947
0.434325
0.434526
0.796066
0.794781
0.792436
0.788694
0.783433
0.776828
0.769229
0.761002
0.752445
0.743773
0.735136
0.726634
0.718336
0.710286
0.702514
0.695038
0.687867
0.681006
0.674453
0.668204
0.66225
0.656582
0.651188
0.646055
0.641169
0.636516
0.632078
0.627841
0.623789
0.619906
0.616179
0.612593
0.609139
0.605804
0.602579
0.599454
0.596421
0.593471
0.590596
0.587787
0.585037
0.58234
0.579688
0.577076
0.574498
0.571949
0.569424
0.566921
0.564436
0.561968
0.559515
0.557078
0.554656
0.552252
0.549867
0.547502
0.545162
0.542847
0.540562
0.538309
0.536091
0.53391
0.531767
0.529664
0.527602
0.525581
0.5236
0.521657
0.519752
0.517883
0.516047
0.514242
0.512467
0.510721
0.509
0.507304
0.505631
0.503981
0.502351
0.50074
0.499146
0.49757
0.496009
0.494461
0.492927
0.491405
0.489895
0.488395
0.486907
0.485429
0.483961
0.482506
0.48106
0.479622
0.478194
0.476775
0.475363
0.473959
0.472562
0.471171
0.469783
0.468397
0.46701
0.465617
0.464214
0.462794
0.461348
0.459863
0.458325
0.456712
0.454991
0.45312
0.451034
0.448634
0.445775
0.442238
0.437683
0.431574
0.423997
0.418907
0.415295
0.412359
0.409569
0.406533
0.402888
0.398262
0.392273
0.380982
0.353818
0.212328
0.200602
0.200013
0.207007
0.300813
0.298218
0.296701
0.310338
0.3239
0.345495
0.367564
0.395085
0.398327
0.40224
0.408247
0.414624
0.420536
0.425691
0.42994
0.43302
0.433819
0.790544
0.788614
0.785489
0.781066
0.775413
0.768747
0.761345
0.753467
0.745324
0.737078
0.728848
0.72072
0.712757
0.705005
0.697496
0.690252
0.683286
0.676607
0.670217
0.664114
0.658295
0.652753
0.647477
0.642458
0.637684
0.633139
0.628809
0.624678
0.620729
0.616948
0.613319
0.609828
0.606466
0.60322
0.600082
0.597042
0.594093
0.591226
0.588433
0.585707
0.583039
0.580421
0.577847
0.575309
0.572802
0.570319
0.567857
0.56541
0.562977
0.560554
0.55814
0.555736
0.553341
0.550958
0.548589
0.546236
0.543904
0.541594
0.539312
0.53706
0.534841
0.53266
0.530518
0.528417
0.526359
0.524343
0.522369
0.520435
0.518541
0.516683
0.51486
0.513068
0.511307
0.509573
0.507866
0.506184
0.504525
0.502887
0.501271
0.499673
0.498093
0.496528
0.494978
0.493441
0.491915
0.4904
0.488894
0.487397
0.485909
0.48443
0.482958
0.481495
0.48004
0.478592
0.47715
0.475713
0.474281
0.472853
0.471427
0.470001
0.468574
0.467142
0.465701
0.464246
0.46277
0.461264
0.459717
0.458111
0.456425
0.454629
0.452678
0.450506
0.448017
0.445063
0.441416
0.436712
0.430313
0.420899
0.408155
0.40311
0.400088
0.397834
0.395782
0.393624
0.391108
0.387998
0.384026
0.372278
0.335355
0.255553
0.203896
0.200124
0.200054
0.203579
0.204826
0.206211
0.209507
0.211825
0.299328
0.311875
0.361134
0.383408
0.400728
0.406322
0.412237
0.418154
0.423627
0.428335
0.431908
0.433165
0.782844
0.780531
0.777034
0.772386
0.766724
0.760247
0.75317
0.745688
0.737964
0.730128
0.722281
0.714504
0.706856
0.699384
0.692123
0.685098
0.678327
0.671822
0.665587
0.659626
0.653938
0.648518
0.64336
0.638457
0.633796
0.629366
0.625151
0.621135
0.617301
0.613632
0.610112
0.606727
0.603466
0.600318
0.597276
0.594331
0.591475
0.588702
0.586005
0.583373
0.580799
0.578275
0.575791
0.573342
0.570918
0.568515
0.566126
0.563748
0.561375
0.559005
0.556638
0.554272
0.551908
0.549549
0.547197
0.544856
0.54253
0.540224
0.537942
0.535688
0.533468
0.531284
0.52914
0.527039
0.524983
0.522971
0.521005
0.519081
0.517199
0.515355
0.513547
0.511771
0.510025
0.508307
0.506615
0.504949
0.503305
0.501684
0.500083
0.498501
0.496937
0.495387
0.493851
0.492326
0.490811
0.489305
0.487806
0.486313
0.484827
0.483346
0.481871
0.480401
0.478938
0.477479
0.476022
0.474567
0.473113
0.471658
0.470201
0.46874
0.46727
0.465789
0.464291
0.462769
0.461214
0.459616
0.457957
0.456218
0.454369
0.452367
0.450153
0.447636
0.444682
0.44109
0.436547
0.430543
0.422062
0.408608
0.38916
0.385717
0.383285
0.381763
0.38062
0.379793
0.378918
0.377887
0.376521
0.361172
0.305198
0.227948
0.20189
0.200064
0.200002
0.200073
0.20013
0.200213
0.200355
0.200411
0.209251
0.211489
0.236124
0.378312
0.400417
0.405586
0.41105
0.416723
0.422209
0.427122
0.430995
0.432569
0.773925
0.771464
0.767886
0.763283
0.757802
0.751615
0.744897
0.737802
0.730467
0.723002
0.715502
0.708039
0.700674
0.693456
0.686421
0.679596
0.673003
0.666656
0.660565
0.654734
0.649166
0.64386
0.638815
0.634023
0.629476
0.625163
0.62107
0.617178
0.61347
0.609925
0.606526
0.603257
0.600106
0.597065
0.594126
0.591284
0.588533
0.585866
0.583276
0.580754
0.57829
0.575875
0.573499
0.571153
0.568829
0.56652
0.56422
0.561922
0.559622
0.557316
0.555002
0.552681
0.550352
0.54802
0.545686
0.543357
0.541037
0.538732
0.536447
0.534189
0.531961
0.529771
0.527621
0.525517
0.52346
0.521453
0.519494
0.517582
0.515714
0.513887
0.512096
0.510338
0.50861
0.50691
0.505236
0.503587
0.501962
0.500359
0.498777
0.497214
0.495668
0.494138
0.492619
0.49111
0.489609
0.488114
0.486624
0.485137
0.483653
0.482173
0.480694
0.479218
0.477747
0.476277
0.474805
0.473332
0.471854
0.470372
0.468881
0.467381
0.465866
0.464331
0.462771
0.461177
0.459537
0.457838
0.456059
0.454172
0.452141
0.449909
0.447397
0.444489
0.441018
0.436733
0.431256
0.423962
0.413517
0.39652
0.374487
0.347722
0.327594
0.30139
0.259909
0.224837
0.230358
0.26085
0.328378
0.321797
0.254969
0.203495
0.200151
0.200005
0.2
0.200002
0.200003
0.200007
0.200011
0.200012
0.20032
0.200436
0.202782
0.39527
0.400527
0.405203
0.410556
0.415896
0.42126
0.426222
0.430253
0.432025
0.764589
0.76212
0.758608
0.754163
0.748922
0.743036
0.736652
0.729902
0.722903
0.715759
0.708555
0.701363
0.694244
0.687245
0.680406
0.673755
0.667317
0.661107
0.655138
0.649419
0.643954
0.638748
0.633801
0.62911
0.624671
0.620475
0.616508
0.61275
0.60918
0.605773
0.602508
0.599367
0.596337
0.59341
0.590583
0.587852
0.585215
0.582667
0.580201
0.577806
0.575471
0.573184
0.570935
0.568712
0.566508
0.564312
0.562117
0.559916
0.557703
0.555473
0.553224
0.550956
0.548668
0.546365
0.544052
0.541734
0.539418
0.537111
0.534819
0.53255
0.530311
0.528108
0.525947
0.523834
0.521766
0.51975
0.517793
0.515894
0.514043
0.512235
0.510465
0.508729
0.507022
0.505342
0.503688
0.50206
0.500456
0.498876
0.497317
0.495779
0.494258
0.492752
0.491256
0.489769
0.488287
0.486808
0.48533
0.483852
0.482373
0.480894
0.479414
0.477932
0.476449
0.474968
0.473481
0.471987
0.470486
0.468974
0.467449
0.465906
0.464343
0.462752
0.461125
0.459453
0.457722
0.455913
0.454001
0.451951
0.449715
0.447223
0.444379
0.441043
0.437018
0.432021
0.425627
0.417116
0.404809
0.384476
0.363331
0.310038
0.234171
0.20104
0.200011
0.2001
0.202984
0.204908
0.202618
0.21791
0.205592
0.200358
0.200014
0.2
0.2
0.2
0.2
0.2
0.2
0.2
0.200007
0.200008
0.238041
0.395838
0.40052
0.404912
0.410115
0.415359
0.420597
0.425542
0.42964
0.431521
0.75533
0.752914
0.749518
0.745252
0.740241
0.73462
0.728514
0.722045
0.71532
0.708433
0.701469
0.694498
0.687578
0.68076
0.674081
0.667572
0.661258
0.655157
0.649283
0.643648
0.63826
0.633126
0.628253
0.623645
0.619299
0.615212
0.611373
0.607759
0.604343
0.601094
0.597981
0.594981
0.592081
0.589277
0.586568
0.583957
0.581446
0.579032
0.576707
0.574461
0.572279
0.570146
0.568049
0.565974
0.563913
0.561854
0.559788
0.557706
0.5556
0.553463
0.551293
0.549087
0.546848
0.544579
0.542288
0.53998
0.537665
0.535351
0.533047
0.53076
0.528501
0.526276
0.524095
0.521945
0.519847
0.517813
0.515847
0.513954
0.512125
0.510344
0.508602
0.506893
0.505213
0.503558
0.501928
0.500324
0.498745
0.497192
0.495662
0.494154
0.492664
0.491189
0.489725
0.488266
0.48681
0.485352
0.483892
0.482427
0.480957
0.479482
0.478001
0.476515
0.475023
0.473532
0.47203
0.470517
0.46899
0.467448
0.465885
0.464299
0.462684
0.461032
0.459334
0.457577
0.455743
0.453811
0.451749
0.449514
0.447047
0.444266
0.441058
0.437269
0.432684
0.426998
0.419752
0.410122
0.395951
0.372119
0.355028
0.265451
0.201242
0.200012
0.2
0.2
0.200032
0.200094
0.200093
0.200829
0.200304
0.200016
0.200001
0.2
0.2
0.2
0.2
0.2
0.2
0.2
0.2
0.202003
0.324239
0.395743
0.40037
0.404664
0.409723
0.414899
0.420103
0.425005
0.429117
0.431047
0.746413
0.744065
0.740783
0.736671
0.731845
0.726424
0.720526
0.714264
0.707738
0.701041
0.694254
0.687446
0.680676
0.673992
0.667433
0.661028
0.654801
0.648772
0.642955
0.637364
0.632013
0.626912
0.622073
0.617507
0.613224
0.609228
0.60551
0.602052
0.598814
0.59575
0.592815
0.589979
0.587224
0.584551
0.581966
0.579482
0.577108
0.574845
0.572686
0.570617
0.56862
0.566674
0.564762
0.562869
0.560984
0.559093
0.557188
0.555254
0.553282
0.551262
0.549188
0.54706
0.544878
0.54265
0.540382
0.538084
0.535767
0.53344
0.531115
0.528802
0.526511
0.524252
0.522007
0.519806
0.517665
0.515598
0.513618
0.511728
0.509927
0.50818
0.506475
0.504801
0.503151
0.501525
0.499922
0.498345
0.496794
0.495271
0.493775
0.492303
0.490853
0.489419
0.487994
0.486574
0.485152
0.483724
0.482287
0.48084
0.479382
0.477914
0.476436
0.474948
0.473449
0.471942
0.470428
0.468896
0.467344
0.46577
0.464169
0.462536
0.460863
0.459143
0.457364
0.455509
0.453557
0.451482
0.449246
0.446798
0.444072
0.440975
0.437388
0.433147
0.428032
0.421729
0.413749
0.403127
0.386988
0.358701
0.347109
0.227305
0.200855
0.200016
0.2
0.2
0.2
0.200001
0.200002
0.200022
0.200008
0.2
0.2
0.2
0.2
0.2
0.2
0.2
0.2
0.200002
0.200158
0.212646
0.348061
0.395577
0.400195
0.404454
0.409413
0.414503
0.419653
0.424546
0.428655
0.430591
0.737968
0.735681
0.732485
0.728479
0.723771
0.718476
0.712704
0.706564
0.700157
0.693575
0.686897
0.680192
0.673517
0.666918
0.660431
0.654084
0.647899
0.641894
0.636084
0.630483
0.625107
0.619972
0.615098
0.610508
0.606137
0.602079
0.598463
0.595172
0.592154
0.589335
0.58664
0.584017
0.581444
0.578922
0.576474
0.57413
0.571912
0.56983
0.567878
0.566038
0.564283
0.562583
0.560912
0.559254
0.557595
0.555924
0.554227
0.552489
0.550692
0.548825
0.546877
0.544847
0.542738
0.540558
0.538317
0.536029
0.533705
0.531359
0.529004
0.52665
0.524311
0.521978
0.519653
0.517366
0.515139
0.512997
0.510971
0.509079
0.507315
0.505617
0.503962
0.502335
0.500726
0.499134
0.497561
0.496014
0.494497
0.493011
0.491557
0.490134
0.488737
0.487359
0.485991
0.484625
0.483252
0.481867
0.480464
0.479043
0.477604
0.476149
0.474676
0.473189
0.471686
0.470167
0.46864
0.467089
0.465511
0.463901
0.462255
0.460567
0.458828
0.457026
0.455148
0.453175
0.451082
0.448837
0.446398
0.443711
0.440703
0.437281
0.433322
0.428667
0.423097
0.416299
0.407756
0.396357
0.378414
0.346136
0.284655
0.212707
0.200273
0.200004
0.2
0.2
0.2
0.2
0.2
0.2
0.2
0.2
0.2
0.2
0.2
0.2
0.2
0.2
0.2
0.200005
0.200289
0.212836
0.365808
0.395555
0.400093
0.404301
0.409161
0.414169
0.419256
0.424113
0.428205
0.430141
0.730054
0.727808
0.724658
0.720698
0.716034
0.710776
0.705038
0.698929
0.692553
0.686004
0.679362
0.672695
0.666056
0.659487
0.65302
0.646679
0.64048
0.634438
0.628565
0.622874
0.617381
0.612106
0.606931
0.60163
0.596434
0.591557
0.587347
0.58433
0.581753
0.579468
0.577304
0.575151
0.572958
0.570732
0.568526
0.566415
0.564463
0.562697
0.561115
0.559689
0.558372
0.557107
0.555853
0.554588
0.553299
0.551978
0.550611
0.549177
0.547651
0.546014
0.544253
0.542367
0.540362
0.538251
0.536048
0.533773
0.531441
0.529068
0.52667
0.52426
0.521852
0.519401
0.516946
0.514502
0.512096
0.509776
0.507617
0.50569
0.503982
0.502362
0.500791
0.499238
0.497688
0.49614
0.494604
0.493093
0.491616
0.49018
0.488784
0.48743
0.486111
0.484819
0.483541
0.482262
0.480967
0.479649
0.478302
0.476924
0.475516
0.474083
0.472625
0.471145
0.469642
0.468117
0.466575
0.465008
0.463402
0.461753
0.460055
0.458299
0.456476
0.454573
0.452572
0.450453
0.448189
0.445745
0.44308
0.440136
0.436845
0.433115
0.42883
0.423837
0.417927
0.410788
0.401879
0.389944
0.370519
0.336715
0.251869
0.207465
0.200161
0.200003
0.2
0.2
0.2
0.2
0.2
0.2
0.2
0.2
0.2
0.2
0.2
0.2
0.2
0.2
0.2
0.200006
0.200235
0.20657
0.390111
0.395906
0.400104
0.404197
0.408943
0.413865
0.418887
0.423697
0.42776
0.42969
0.722697
0.720466
0.717313
0.71333
0.708623
0.703305
0.697495
0.691313
0.68487
0.678266
0.671581
0.664883
0.658217
0.65162
0.645115
0.638717
0.632435
0.626275
0.620242
0.614341
0.608582
0.602707
0.596303
0.589592
0.582512
0.57553
0.569166
0.565956
0.564157
0.562983
0.56194
0.560762
0.559312
0.55759
0.555717
0.5539
0.552329
0.551082
0.550163
0.549527
0.549079
0.548681
0.54824
0.547722
0.547124
0.546447
0.54568
0.544795
0.543753
0.542521
0.541083
0.539442
0.537611
0.535615
0.533479
0.531231
0.528895
0.526491
0.524039
0.521553
0.519023
0.516409
0.513735
0.511001
0.508225
0.505476
0.502942
0.500898
0.499278
0.497807
0.496393
0.494976
0.493528
0.492048
0.490559
0.489093
0.48767
0.486302
0.484993
0.483745
0.482553
0.481408
0.480287
0.479162
0.478009
0.476811
0.475561
0.474259
0.47291
0.47152
0.470093
0.468633
0.467141
0.465617
0.464058
0.46248
0.460846
0.459153
0.457392
0.455555
0.45363
0.451604
0.449456
0.447165
0.444705
0.442043
0.43914
0.435949
0.432404
0.428424
0.423899
0.418686
0.412578
0.405262
0.39617
0.3839
0.363192
0.329784
0.228621
0.201815
0.200041
0.200001
0.2
0.2
0.2
0.2
0.2
0.2
0.2
0.2
0.2
0.2
0.2
0.2
0.2
0.2
0.2
0.200016
0.20067
0.220753
0.390835
0.396024
0.400045
0.404065
0.408716
0.413562
0.418521
0.423284
0.427313
0.429238
0.715891
0.713638
0.710427
0.706351
0.701526
0.696064
0.690015
0.683633
0.677011
0.670254
0.663445
0.656644
0.649887
0.643199
0.636589
0.630059
0.623604
0.617214
0.610876
0.604577
0.598126
0.590466
0.581723
0.571889
0.560728
0.550149
0.53915
0.535408
0.534888
0.53606
0.537321
0.538076
0.537963
0.536915
0.535005
0.532067
0.530852
0.530351
0.530579
0.53148
0.532851
0.534276
0.5355
0.53646
0.537195
0.537754
0.538146
0.538328
0.538223
0.537769
0.536941
0.535753
0.534243
0.532458
0.53045
0.528264
0.52594
0.523508
0.520991
0.518404
0.515687
0.512834
0.509816
0.506589
0.503113
0.499438
0.495979
0.493719
0.492262
0.491106
0.490015
0.48887
0.487603
0.486212
0.48476
0.483328
0.481961
0.480676
0.479484
0.478391
0.477403
0.476507
0.475669
0.474826
0.473931
0.472953
0.47188
0.470714
0.469469
0.468157
0.466789
0.465373
0.463912
0.462405
0.460849
0.459253
0.457602
0.455867
0.454041
0.452113
0.450073
0.447904
0.44559
0.443108
0.440438
0.437556
0.434435
0.431038
0.427313
0.423184
0.418546
0.413254
0.407102
0.399766
0.390639
0.378151
0.356086
0.32482
0.215602
0.20024
0.200004
0.2
0.2
0.2
0.2
0.2
0.2
0.2
0.2
0.2
0.2
0.2
0.2
0.2
0.2
0.2
0.2
0.200028
0.202181
0.290349
0.39076
0.395905
0.399877
0.403868
0.408449
0.413234
0.418141
0.422863
0.426864
0.428783
0.709609
0.707276
0.703921
0.699644
0.694573
0.688845
0.682544
0.675926
0.669112
0.661892
0.654789
0.647809
0.640895
0.634047
0.627255
0.620499
0.613748
0.606964
0.600097
0.593084
0.584262
0.573276
0.559728
0.545608
0.529497
0.517982
0.504185
0.501678
0.50199
0.506106
0.509923
0.512729
0.51384
0.512889
0.508308
0.501616
0.49884
0.498663
0.499986
0.502908
0.50726
0.511755
0.51565
0.518867
0.521619
0.524111
0.52642
0.528468
0.530058
0.531021
0.531297
0.530918
0.52997
0.528556
0.526774
0.524707
0.522422
0.519968
0.517376
0.514661
0.511728
0.508552
0.505053
0.501104
0.496519
0.491235
0.486038
0.483758
0.482597
0.482081
0.481578
0.480898
0.479894
0.478549
0.47674
0.475098
0.473748
0.472532
0.471459
0.470555
0.469847
0.469347
0.469007
0.468664
0.468226
0.467627
0.46685
0.465907
0.464827
0.46364
0.46237
0.461032
0.459633
0.458171
0.45664
0.45503
0.45338
0.451612
0.449723
0.447704
0.445546
0.443233
0.440749
0.438078
0.435208
0.432132
0.428846
0.425332
0.421545
0.417411
0.412815
0.4076
0.401551
0.394327
0.38527
0.372553
0.348539
0.321252
0.21226
0.200227
0.200003
0.2
0.2
0.2
0.2
0.2
0.2
0.2
0.2
0.2
0.2
0.2
0.2
0.2
0.2
0.200001
0.20001
0.200782
0.223097
0.336931
0.390571
0.395687
0.39963
0.403599
0.408126
0.412862
0.41773
0.422424
0.426408
0.428326
0.703838
0.701358
0.697758
0.693147
0.687669
0.681499
0.674789
0.667796
0.660657
0.653263
0.645971
0.63817
0.631003
0.623916
0.616846
0.609732
0.602504
0.595068
0.587296
0.577964
0.565245
0.547732
0.527674
0.512615
0.495319
0.489831
0.485151
0.464283
0.459082
0.49435
0.496585
0.498489
0.498968
0.496867
0.488637
0.477417
0.474161
0.47207
0.472475
0.475155
0.481304
0.488132
0.493791
0.498328
0.502359
0.506394
0.510664
0.515044
0.519017
0.522078
0.524006
0.524831
0.524708
0.523827
0.522365
0.520465
0.518238
0.515762
0.51308
0.510206
0.507028
0.503493
0.499459
0.494686
0.488739
0.481522
0.474705
0.473021
0.47222
0.472686
0.472867
0.472714
0.471922
0.470356
0.46685
0.464624
0.463048
0.461818
0.460779
0.459983
0.459521
0.459509
0.459961
0.460404
0.460679
0.460653
0.460293
0.459643
0.458771
0.457738
0.456592
0.455362
0.454061
0.452683
0.45121
0.449627
0.447937
0.446158
0.444221
0.442125
0.439862
0.437422
0.434793
0.431962
0.428928
0.425707
0.422342
0.418831
0.415134
0.411168
0.406778
0.401783
0.395958
0.388958
0.380045
0.36698
0.339413
0.31727
0.211726
0.200238
0.200004
0.2
0.2
0.2
0.2
0.2
0.2
0.2
0.2
0.2
0.2
0.2
0.2
0.2
0.200011
0.200123
0.202132
0.219351
0.273291
0.36242
0.390503
0.395465
0.399333
0.403258
0.407731
0.412429
0.417273
0.42196
0.425945
0.427868
0.698555
0.695851
0.691885
0.686763
0.680663
0.673823
0.666499
0.658971
0.651382
0.643702
0.636105
0.628231
0.620249
0.612472
0.604963
0.597293
0.589294
0.580765
0.571423
0.556813
0.537545
0.51198
0.489562
0.481276
0.47436
0.364732
0.225297
0.208133
0.224026
0.246725
0.441085
0.48661
0.487607
0.484121
0.469977
0.462638
0.424799
0.319402
0.305631
0.420733
0.471165
0.476279
0.480008
0.482829
0.485638
0.489171
0.49394
0.500016
0.506456
0.511913
0.515762
0.517975
0.518786
0.51849
0.517359
0.515611
0.513413
0.510882
0.508083
0.505026
0.501624
0.497794
0.493341
0.487893
0.480678
0.472262
0.467159
0.454776
0.446805
0.465556
0.46598
0.466179
0.465398
0.462563
0.455212
0.451287
0.449538
0.448208
0.446211
0.445325
0.444925
0.445434
0.447448
0.44931
0.450818
0.451714
0.451944
0.451654
0.45101
0.450141
0.449131
0.448036
0.446878
0.445645
0.444284
0.442762
0.441071
0.439291
0.437335
0.435212
0.432916
0.430437
0.427756
0.424852
0.421715
0.418378
0.415009
0.41162
0.408168
0.404554
0.400512
0.395832
0.390314
0.383639
0.374984
0.361578
0.329271
0.227535
0.201106
0.200019
0.2
0.2
0.2
0.2
0.2
0.2
0.2
0.2
0.2
0.2
0.2
0.2
0.2
0.2
0.20001
0.200244
0.204913
0.23235
0.298142
0.385559
0.390776
0.395267
0.398975
0.402824
0.407242
0.411913
0.416775
0.42146
0.425459
0.427404
0.693729
0.690714
0.686224
0.680347
0.673306
0.665471
0.657263
0.64901
0.640847
0.632765
0.624798
0.616734
0.608575
0.599785
0.591039
0.582439
0.573151
0.562713
0.547648
0.522548
0.49884
0.472302
0.463874
0.387908
0.231
0.204099
0.200405
0.200104
0.200286
0.200617
0.210193
0.420903
0.472014
0.467262
0.449631
0.291441
0.20222
0.201096
0.201483
0.212607
0.433446
0.468979
0.470508
0.471052
0.471831
0.473684
0.477592
0.484673
0.494032
0.502081
0.507779
0.511231
0.512827
0.51298
0.512051
0.510335
0.508059
0.50539
0.502431
0.499191
0.495652
0.491716
0.487153
0.481411
0.473209
0.464446
0.403668
0.211483
0.206314
0.226066
0.413905
0.458184
0.458198
0.454563
0.446404
0.388496
0.225889
0.243837
0.205633
0.200792
0.221867
0.396616
0.440988
0.442311
0.443687
0.444579
0.444681
0.44423
0.443446
0.442477
0.441417
0.440333
0.439263
0.43818
0.436935
0.435474
0.433798
0.43193
0.429965
0.427845
0.425564
0.423095
0.4204
0.417418
0.414077
0.410375
0.406969
0.403754
0.400672
0.397612
0.393994
0.389629
0.38444
0.378208
0.369974
0.356469
0.320674
0.215437
0.200468
0.200008
0.2
0.2
0.2
0.2
0.2
0.2
0.2
0.2
0.2
0.2
0.2
0.2
0.2
0.2
0.200005
0.200136
0.205249
0.227565
0.2912
0.385895
0.390679
0.394892
0.398476
0.402248
0.406688
0.411323
0.416176
0.420885
0.424931
0.42693
0.689327
0.685906
0.680683
0.673678
0.665185
0.655837
0.646375
0.637171
0.628308
0.619728
0.611346
0.602974
0.594457
0.585376
0.574863
0.564023
0.552372
0.538118
0.505222
0.468594
0.451383
0.441949
0.250789
0.206829
0.200718
0.200061
0.200004
0.200001
0.200003
0.200005
0.200154
0.239337
0.360819
0.442342
0.40227
0.229066
0.200514
0.200009
0.200009
0.20013
0.218303
0.441741
0.379592
0.334566
0.351878
0.413108
0.449906
0.481017
0.489338
0.496507
0.502103
0.505764
0.507559
0.507774
0.506751
0.504814
0.502244
0.499279
0.496108
0.492723
0.489185
0.48542
0.481227
0.475825
0.467634
0.341604
0.206687
0.200165
0.200052
0.200428
0.211376
0.426522
0.452927
0.445322
0.436649
0.366771
0.207086
0.200676
0.200067
0.200014
0.200176
0.20285
0.206751
0.388745
0.438861
0.43945
0.438891
0.437912
0.43674
0.435487
0.434229
0.433042
0.432006
0.431129
0.42999
0.42854
0.426837
0.424935
0.422919
0.42074
0.418391
0.41583
0.41299
0.409733
0.405798
0.400891
0.397558
0.39461
0.392075
0.389409
0.386179
0.382253
0.377542
0.372037
0.364377
0.35078
0.310938
0.209339
0.200231
0.200004
0.2
0.2
0.2
0.2
0.2
0.2
0.2
0.2
0.2
0.2
0.2
0.2
0.2
0.2
0.200008
0.200131
0.201328
0.205638
0.21474
0.38549
0.390216
0.394287
0.397831
0.401593
0.405961
0.410573
0.415442
0.420212
0.424348
0.426446
0.685316
0.681401
0.675176
0.666448
0.655579
0.643765
0.63249
0.622055
0.612383
0.60326
0.59444
0.585645
0.576576
0.566805
0.555645
0.540831
0.52342
0.499067
0.439556
0.422931
0.30473
0.219416
0.201767
0.200131
0.20001
0.200001
0.2
0.2
0.2
0.2
0.200004
0.200838
0.26619
0.425706
0.348876
0.213819
0.200243
0.200003
0.2
0.200001
0.352302
0.412651
0.277499
0.206271
0.211899
0.366217
0.426644
0.478134
0.486458
0.493
0.498162
0.50156
0.503112
0.50299
0.501486
0.498939
0.495704
0.49194
0.488512
0.485042
0.481643
0.478247
0.474658
0.470174
0.463102
0.29272
0.203828
0.200067
0.200001
0.200007
0.20028