/*--------------------------------*- C++ -*----------------------------------*\
| =========                 |                                                 |
| \\      /  F ield         | OpenFOAM: The Open Source CFD Toolbox           |
|  \\    /   O peration     | Version:  2.1.0                                 |
|   \\  /    A nd           | Web:      www.OpenFOAM.org                      |
|    \\/     M anipulation  |                                                 |
\*---------------------------------------------------------------------------*/
FoamFile
{
    version     2.0;
    format      ascii;
    class       volScalarField;
    location    "44165";
    object      kr_o;
}
// * * * * * * * * * * * * * * * * * * * * * * * * * * * * * * * * * * * * * //

dimensions      [0 0 0 0 0 0 0];

internalField   nonuniform List<scalar> 
15000
(
0
3.00195e-07
4.24299e-07
7.59124e-06
9.03541e-05
0.000436537
0.00121855
0.0024509
0.00404818
0.0059179
0.00799117
0.0102201
0.01257
0.0150141
0.0175299
0.0200984
0.0227027
0.0253279
0.0279612
0.0305917
0.03321
0.0358086
0.0383818
0.0409249
0.0434349
0.0459099
0.0483488
0.0507517
0.0531192
0.0554526
0.0577537
0.0600247
0.0622682
0.0644872
0.0666844
0.0688621
0.0710225
0.0731676
0.0752992
0.0774193
0.0795295
0.0816317
0.0837275
0.0858184
0.0879059
0.089991
0.0920743
0.0941565
0.0962377
0.0983181
0.100398
0.102475
0.104551
0.106622
0.108688
0.110748
0.112798
0.114838
0.116866
0.118881
0.120881
0.122864
0.124831
0.126779
0.128708
0.130618
0.13251
0.134382
0.136237
0.138073
0.139892
0.141695
0.143482
0.145254
0.147012
0.148757
0.150489
0.152209
0.153918
0.155616
0.157304
0.158981
0.16065
0.162309
0.163959
0.165601
0.167233
0.168856
0.170469
0.172072
0.173664
0.175245
0.176814
0.17837
0.179911
0.181437
0.182947
0.184439
0.185912
0.187364
0.188793
0.190198
0.191578
0.19293
0.194252
0.195544
0.196803
0.198028
0.199219
0.200373
0.201492
0.202574
0.20362
0.204631
0.205609
0.206554
0.207467
0.20835
0.209206
0.210036
0.21085
0.211657
0.212474
0.213322
0.214227
0.215218
0.216308
0.217467
0.218585
0.21951
0.220212
0.220718
0.221074
0.22143
0.221791
0.222161
0.222543
0.222941
0.223359
0.223799
0.22427
0.224783
0.225355
0.226008
0.226777
0.227714
0.228909
0.230538
0.233051
0.238347
3.18e-07
6.96328e-07
1.31074e-06
2.08482e-05
0.000163711
0.000626584
0.00153294
0.00285871
0.00451555
0.00642126
0.00851629
0.0107588
0.0131176
0.0155681
0.0180889
0.0206617
0.0232698
0.0258988
0.0285358
0.03117
0.033792
0.0363944
0.0389711
0.0415175
0.0440306
0.0465082
0.0489495
0.0513543
0.0537234
0.0560582
0.0583602
0.0606319
0.062876
0.0650953
0.0672926
0.0694701
0.0716298
0.0737736
0.0759033
0.0780209
0.0801283
0.0822272
0.0843196
0.0864069
0.0884906
0.0905716
0.0926508
0.094729
0.0968066
0.0988839
0.100961
0.103037
0.105111
0.107181
0.109247
0.111306
0.113357
0.115398
0.117428
0.119445
0.121447
0.123433
0.125402
0.127352
0.129285
0.131198
0.133092
0.134967
0.136824
0.138663
0.140485
0.14229
0.14408
0.145854
0.147615
0.149362
0.151096
0.152818
0.15453
0.15623
0.15792
0.1596
0.161271
0.162933
0.164587
0.166233
0.167869
0.169497
0.171116
0.172726
0.174325
0.175914
0.177493
0.179059
0.180613
0.182154
0.18368
0.18519
0.186683
0.188157
0.189613
0.191048
0.192461
0.193851
0.195217
0.196559
0.197876
0.199167
0.200435
0.201679
0.202901
0.204103
0.205288
0.20646
0.207622
0.208776
0.209926
0.211071
0.212213
0.213355
0.214512
0.215712
0.217003
0.218456
0.220168
0.222254
0.224807
0.227774
0.230705
0.232852
0.234248
0.235057
0.235438
0.235663
0.235739
0.235697
0.235602
0.235479
0.235309
0.235061
0.234718
0.234301
0.233853
0.233435
0.233116
0.232972
0.233105
0.233695
0.235186
0.239468
4.25923e-07
1.17824e-06
9.20788e-06
7.58164e-05
0.000348016
0.000991131
0.00205482
0.00348512
0.00520286
0.00714251
0.00925654
0.0115101
0.0138761
0.0163315
0.0188565
0.021433
0.0240449
0.0266777
0.0293186
0.0319566
0.0345823
0.037188
0.0397676
0.0423165
0.0448312
0.0473098
0.0497514
0.0521559
0.054524
0.0568572
0.0591572
0.0614264
0.0636675
0.0658835
0.0680768
0.0702494
0.0724035
0.0745409
0.0766636
0.0787734
0.0808724
0.0829626
0.0850459
0.087124
0.0891985
0.0912706
0.0933413
0.0954115
0.097482
0.0995531
0.101625
0.103696
0.105767
0.107835
0.109899
0.111958
0.11401
0.116053
0.118085
0.120104
0.12211
0.124099
0.126071
0.128025
0.12996
0.131876
0.133773
0.135651
0.13751
0.139351
0.141174
0.142981
0.144772
0.146548
0.148309
0.150057
0.151792
0.153516
0.155228
0.156929
0.15862
0.160302
0.161976
0.163641
0.165298
0.166947
0.168588
0.170222
0.171847
0.173463
0.175071
0.176669
0.178258
0.179838
0.181406
0.182963
0.184508
0.186039
0.187556
0.189058
0.190545
0.192016
0.19347
0.194907
0.196327
0.197731
0.19912
0.200496
0.201861
0.203219
0.204575
0.205935
0.207306
0.208698
0.210121
0.211584
0.213098
0.21467
0.216299
0.217977
0.219718
0.221573
0.223643
0.226087
0.229134
0.233075
0.238205
0.244586
0.250946
0.254613
0.256679
0.257743
0.258134
0.258039
0.257451
0.256436
0.255297
0.254127
0.252844
0.251316
0.249483
0.24741
0.245216
0.243044
0.241033
0.239305
0.23798
0.237235
0.237502
0.240657
7.00027e-06
1.94547e-05
7.36189e-05
0.00026635
0.000743456
0.00159514
0.00281236
0.00433645
0.00610652
0.00807443
0.0102039
0.0124663
0.014838
0.0172979
0.019827
0.0224077
0.0250239
0.0276611
0.0303066
0.032949
0.0355789
0.0381881
0.0407705
0.0433211
0.0458366
0.0483148
0.0507549
0.0531568
0.0555215
0.0578504
0.0601452
0.0624086
0.0646434
0.0668523
0.0690375
0.071201
0.0733448
0.075471
0.0775814
0.0796782
0.0817634
0.0838394
0.0859082
0.0879718
0.090032
0.0920902
0.0941479
0.0962061
0.0982658
0.100328
0.102391
0.104456
0.106522
0.108587
0.110649
0.112708
0.11476
0.116805
0.118839
0.120862
0.122871
0.124863
0.126839
0.128797
0.130735
0.132654
0.134553
0.136433
0.138294
0.140136
0.141961
0.143768
0.145559
0.147335
0.149096
0.150844
0.152579
0.154302
0.156014
0.157715
0.159407
0.16109
0.162764
0.164431
0.166091
0.167744
0.169389
0.171028
0.172659
0.174284
0.1759
0.177509
0.17911
0.180704
0.182289
0.183865
0.185431
0.186987
0.188532
0.190067
0.19159
0.193103
0.194606
0.196099
0.197583
0.199062
0.200537
0.202014
0.203497
0.204995
0.206516
0.208075
0.209686
0.211372
0.213159
0.21508
0.217176
0.219479
0.221983
0.224597
0.227286
0.230124
0.233289
0.23707
0.241875
0.248266
0.256905
0.268442
0.279773
0.283509
0.285442
0.286436
0.286817
0.286348
0.284852
0.282249
0.279623
0.277196
0.274655
0.271608
0.267858
0.263585
0.259039
0.254507
0.25026
0.246497
0.243367
0.241043
0.239935
0.241893
8.29308e-05
0.000152716
0.00033313
0.000729407
0.00143355
0.00247032
0.00380998
0.00540614
0.00721636
0.00920635
0.0113483
0.0136187
0.0159963
0.0184614
0.0209957
0.023582
0.0262041
0.0288475
0.0314992
0.0341475
0.0367826
0.0393963
0.0419819
0.0445343
0.04705
0.0495268
0.0519639
0.0543615
0.0567204
0.0590422
0.061329
0.0635836
0.0658088
0.0680067
0.0701797
0.0723297
0.0744586
0.0765684
0.0786613
0.0807394
0.0828052
0.0848611
0.0869096
0.088953
0.0909933
0.0930325
0.0950722
0.097114
0.099159
0.101208
0.103261
0.105317
0.107376
0.109436
0.111496
0.113554
0.115607
0.117654
0.119692
0.121719
0.123732
0.125729
0.127709
0.129671
0.131613
0.133535
0.135436
0.137318
0.13918
0.141022
0.142847
0.144654
0.146444
0.148219
0.149979
0.151725
0.153458
0.15518
0.15689
0.158591
0.160282
0.161964
0.16364
0.165308
0.166969
0.168625
0.170274
0.171918
0.173557
0.175189
0.176816
0.178436
0.180051
0.18166
0.183264
0.184861
0.186452
0.188035
0.189613
0.191184
0.19275
0.194311
0.195869
0.197426
0.198984
0.200548
0.202123
0.203717
0.205339
0.207002
0.208724
0.210526
0.212443
0.214518
0.216816
0.219429
0.222482
0.226101
0.230245
0.234427
0.238476
0.242526
0.246893
0.252025
0.258534
0.267252
0.27926
0.29662
0.311226
0.311797
0.313281
0.314018
0.31446
0.314052
0.312212
0.307709
0.303707
0.300672
0.297635
0.293668
0.288177
0.281628
0.274483
0.267196
0.260301
0.254166
0.248995
0.244946
0.242392
0.243145
0.000400387
0.000583183
0.000941395
0.00154628
0.0024365
0.00360795
0.00503318
0.00668014
0.00851988
0.0105275
0.0126809
0.0149598
0.0173449
0.0198175
0.0223597
0.0249543
0.0275852
0.0302377
0.0328982
0.0355549
0.0381976
0.0408175
0.0434075
0.0459624
0.0484785
0.0509535
0.0533866
0.055778
0.0581289
0.0604412
0.0627174
0.0649602
0.0671722
0.0693555
0.0715122
0.0736441
0.0757532
0.0778414
0.079911
0.0819645
0.0840045
0.086034
0.0880557
0.0900725
0.0920869
0.0941012
0.0961176
0.098138
0.100164
0.102196
0.104235
0.10628
0.10833
0.110385
0.112442
0.114499
0.116554
0.118603
0.120646
0.122677
0.124696
0.126699
0.128685
0.130652
0.132598
0.134523
0.136427
0.13831
0.140172
0.142015
0.143838
0.145643
0.147432
0.149204
0.150961
0.152705
0.154436
0.156155
0.157863
0.159561
0.16125
0.162931
0.164605
0.166273
0.167936
0.169594
0.171247
0.172897
0.174542
0.176183
0.17782
0.179453
0.181083
0.18271
0.184333
0.185954
0.187571
0.189186
0.190799
0.192411
0.194024
0.195639
0.197259
0.198887
0.200528
0.202189
0.203877
0.205604
0.207385
0.209241
0.211198
0.213298
0.215599
0.218187
0.221202
0.22486
0.229496
0.235508
0.242766
0.249263
0.254831
0.259923
0.265114
0.271033
0.278422
0.288227
0.301662
0.322825
0.330242
0.346439
0.3641
0.394465
0.420252
0.409083
0.374208
0.319648
0.316543
0.31529
0.313935
0.311289
0.305762
0.298224
0.28947
0.2797
0.270161
0.261633
0.254431
0.248697
0.244754
0.244375
0.00111847
0.00142474
0.00194167
0.00270317
0.00371897
0.00497792
0.00645956
0.00814195
0.0100045
0.0120279
0.0141937
0.0164837
0.0188797
0.0213637
0.0239179
0.0265252
0.0291693
0.031835
0.0345085
0.0371775
0.0398312
0.0424603
0.0450573
0.0476165
0.0501338
0.052607
0.0550353
0.0574192
0.0597602
0.0620606
0.0643235
0.0665515
0.068747
0.0709118
0.073048
0.0751571
0.0772411
0.079302
0.0813422
0.0833643
0.0853716
0.0873675
0.0893553
0.0913383
0.0933197
0.0953024
0.0972892
0.0992824
0.101284
0.103295
0.105316
0.107347
0.109387
0.111435
0.113488
0.115544
0.117601
0.119655
0.121703
0.123741
0.125768
0.127779
0.129772
0.131745
0.133697
0.135626
0.137532
0.139416
0.141278
0.143119
0.144941
0.146743
0.148528
0.150297
0.152051
0.153791
0.155518
0.157233
0.158937
0.160631
0.162316
0.163995
0.165667
0.167334
0.168996
0.170655
0.172312
0.173966
0.175619
0.177269
0.178918
0.180563
0.182208
0.183854
0.185499
0.187146
0.188793
0.190442
0.192094
0.193751
0.195415
0.197089
0.198777
0.200483
0.202216
0.203983
0.205797
0.207674
0.209636
0.211713
0.213949
0.216408
0.219189
0.22245
0.226449
0.231636
0.238785
0.249005
0.262153
0.271163
0.277623
0.282914
0.287984
0.29358
0.300411
0.309261
0.321048
0.342566
0.394717
0.56059
0.562452
0.562499
0.560258
0.509229
0.500901
0.482843
0.456177
0.435598
0.398856
0.361264
0.31392
0.308133
0.300873
0.289781
0.278286
0.267929
0.259129
0.252015
0.246897
0.245547
0.00224912
0.00265139
0.00327771
0.00413886
0.00523231
0.00654657
0.00806638
0.00977572
0.0116586
0.013699
0.0158806
0.0181862
0.0205985
0.0230996
0.0256718
0.0282979
0.0309611
0.0336462
0.0363386
0.0390255
0.0416954
0.0443384
0.0469463
0.0495127
0.0520333
0.0545056
0.0569289
0.0593041
0.0616334
0.0639199
0.0661667
0.0683766
0.0705518
0.0726942
0.0748055
0.0768869
0.0789403
0.0809676
0.0829712
0.0849546
0.0869212
0.0888751
0.0908205
0.0927614
0.0947016
0.0966449
0.0985947
0.100554
0.102525
0.10451
0.106509
0.108522
0.110549
0.112588
0.114637
0.116693
0.118753
0.120812
0.122868
0.124916
0.126953
0.128974
0.130977
0.132959
0.134917
0.136851
0.138761
0.140645
0.142507
0.144346
0.146164
0.147962
0.149743
0.151507
0.153256
0.154991
0.156713
0.158422
0.16012
0.161809
0.163489
0.165162
0.16683
0.168494
0.170155
0.171815
0.173474
0.175133
0.176792
0.178452
0.180112
0.181771
0.183433
0.185098
0.186767
0.188441
0.19012
0.191806
0.193501
0.195206
0.196926
0.198665
0.200426
0.202219
0.204052
0.205936
0.207889
0.209934
0.2121
0.214432
0.216995
0.219888
0.223266
0.227382
0.232676
0.23996
0.250777
0.267764
0.291546
0.30108
0.306755
0.310961
0.314785
0.318883
0.32376
0.329932
0.338066
0.35991
0.440327
0.541356
0.561894
0.56249
0.562492
0.561712
0.561134
0.559923
0.558119
0.556882
0.49303
0.473194
0.373454
0.334
0.303516
0.293286
0.282558
0.272084
0.262646
0.254698
0.248736
0.246637
0.003707
0.00417361
0.00486815
0.00579007
0.00693229
0.00828414
0.00983345
0.0115673
0.0134723
0.0155341
0.0177372
0.0200655
0.0225015
0.0250276
0.0276258
0.0302788
0.0329695
0.0356821
0.0384015
0.0411143
0.0438079
0.0464717
0.0490965
0.0516752
0.0542026
0.056676
0.0590949
0.0614608
0.0637766
0.0660464
0.0682738
0.0704618
0.0726129
0.0747288
0.0768105
0.0788591
0.0808758
0.0828625
0.0848218
0.0867575
0.0886741
0.0905763
0.0924693
0.0943579
0.0962471
0.0981414
0.100045
0.101962
0.103895
0.105846
0.107818
0.109809
0.111821
0.11385
0.115894
0.11795
0.120014
0.122082
0.124148
0.126209
0.128259
0.130294
0.13231
0.134303
0.136271
0.138212
0.140125
0.14201
0.14387
0.145705
0.147518
0.149312
0.151087
0.152845
0.154588
0.156316
0.158031
0.159733
0.161424
0.163105
0.164777
0.166443
0.168105
0.169764
0.171422
0.173081
0.174741
0.176403
0.178069
0.179738
0.181411
0.183087
0.184766
0.186452
0.188146
0.189849
0.191563
0.193288
0.195028
0.196787
0.198567
0.200375
0.202218
0.204104
0.206046
0.20806
0.210168
0.212401
0.2148
0.217428
0.220378
0.223792
0.227895
0.233061
0.239956
0.24987
0.265406
0.291499
0.330673
0.336689
0.340896
0.34342
0.34515
0.346788
0.348656
0.350908
0.353991
0.380887
0.489721
0.555051
0.562269
0.562496
0.5625
0.56249
0.562478
0.562449
0.56241
0.562396
0.559839
0.558656
0.540912
0.344173
0.304156
0.294679
0.284727
0.274623
0.265094
0.25675
0.250259
0.247636
0.00539721
0.00590623
0.00664436
0.00760623
0.00878333
0.0101659
0.0117435
0.0135047
0.0154374
0.017528
0.0197616
0.0221219
0.0245917
0.0271531
0.029788
0.0324786
0.0352076
0.0379587
0.0407162
0.0434658
0.0461939
0.0488887
0.0515397
0.0541384
0.0566788
0.0591574
0.0615736
0.0639298
0.0662301
0.0684796
0.070683
0.0728445
0.074967
0.0770519
0.0790995
0.0811098
0.0830833
0.0850214
0.0869271
0.0888048
0.0906598
0.0924983
0.0943265
0.0961506
0.0979764
0.0998096
0.101656
0.103519
0.105404
0.107314
0.109251
0.111216
0.113208
0.115224
0.117263
0.11932
0.121391
0.123469
0.12555
0.127628
0.129697
0.131751
0.133784
0.135793
0.137774
0.139723
0.141641
0.143527
0.145384
0.147214
0.149021
0.150807
0.152574
0.154326
0.156061
0.157782
0.159488
0.161181
0.162862
0.164533
0.166195
0.167851
0.169503
0.171155
0.172807
0.174462
0.176122
0.177787
0.179458
0.181136
0.182822
0.184515
0.186212
0.187921
0.189642
0.191377
0.193128
0.194897
0.196688
0.198504
0.200351
0.202237
0.204168
0.206159
0.208223
0.210381
0.212664
0.21511
0.217779
0.220755
0.224163
0.228196
0.233159
0.239559
0.24832
0.261263
0.282039
0.317082
0.364034
0.410168
0.454012
0.515283
0.551052
0.557203
0.540526
0.513077
0.425074
0.452795
0.543336
0.562051
0.56249
0.5625
0.5625
0.5625
0.5625
0.562499
0.562498
0.562498
0.562451
0.562424
0.561692
0.313187
0.304017
0.295447
0.285668
0.276121
0.26676
0.25829
0.251508
0.248555
0.00724639
0.00778543
0.00855537
0.00954883
0.0107572
0.0121714
0.0137818
0.0155779
0.0175479
0.0196784
0.0219543
0.0243594
0.026876
0.0294859
0.032171
0.0349131
0.0376946
0.0404988
0.0433094
0.0461111
0.0488891
0.05163
0.0543214
0.0569531
0.0595168
0.0620079
0.0644255
0.0667719
0.0690528
0.0712757
0.0734484
0.0755773
0.0776659
0.0797151
0.0817239
0.0836904
0.0856136
0.0874942
0.0893351
0.0911416
0.0929207
0.0946801
0.0964279
0.0981716
0.0999183
0.101675
0.103448
0.105244
0.107069
0.108926
0.11082
0.112751
0.114718
0.11672
0.118753
0.120812
0.122891
0.124984
0.127085
0.129185
0.131279
0.133359
0.135417
0.137449
0.139456
0.141429
0.143359
0.145244
0.147095
0.148917
0.150713
0.152488
0.154245
0.155987
0.157713
0.159424
0.16112
0.162801
0.16447
0.166127
0.167775
0.169416
0.171056
0.172695
0.174338
0.175987
0.177644
0.179311
0.180987
0.182675
0.184374
0.186084
0.187802
0.189535
0.191285
0.193055
0.194848
0.196665
0.198511
0.200391
0.202312
0.204282
0.206313
0.208418
0.210619
0.212942
0.215426
0.218123
0.22111
0.224497
0.228446
0.233204
0.239157
0.246955
0.257809
0.274155
0.300738
0.344839
0.391316
0.476489
0.551742
0.562353
0.562499
0.562483
0.561367
0.560777
0.561105
0.556679
0.56175
0.562476
0.5625
0.5625
0.5625
0.5625
0.5625
0.5625
0.5625
0.5625
0.562499
0.562499
0.531307
0.312429
0.304126
0.296054
0.286531
0.277121
0.267946
0.259471
0.252549
0.249412
0.00920134
0.00976472
0.0105629
0.0115877
0.0128308
0.0142835
0.0159366
0.0177797
0.0198007
0.0219861
0.0243202
0.0267862
0.0293661
0.0320415
0.0347939
0.0376052
0.0404578
0.0433346
0.0462188
0.0490941
0.0519445
0.0547545
0.0575091
0.0601947
0.0628002
0.0653175
0.0677428
0.0700782
0.0723325
0.0745186
0.0766499
0.0787368
0.0807846
0.0827933
0.084759
0.0866767
0.0885421
0.0903543
0.0921164
0.0938348
0.0955188
0.0971789
0.0988254
0.100468
0.102115
0.103774
0.105454
0.107164
0.108911
0.110701
0.112538
0.114426
0.116362
0.118346
0.120371
0.122433
0.124525
0.126638
0.128765
0.130896
0.133024
0.135139
0.137234
0.139319
0.141368
0.143373
0.145326
0.147223
0.149067
0.150876
0.152658
0.154419
0.156163
0.157893
0.159607
0.161307
0.16299
0.164657
0.166308
0.167946
0.169574
0.171194
0.172813
0.174433
0.17606
0.177698
0.179348
0.181012
0.182692
0.184388
0.1861
0.187828
0.189574
0.191332
0.193114
0.194921
0.196757
0.198626
0.200532
0.202482
0.204484
0.20655
0.208693
0.210932
0.213293
0.215812
0.218537
0.221536
0.224905
0.228781
0.233362
0.238945
0.245995
0.255317
0.268463
0.28862
0.321806
0.375747
0.41229
0.526825
0.562235
0.562499
0.5625
0.5625
0.562493
0.562483
0.562478
0.562386
0.56248
0.562499
0.5625
0.5625
0.5625
0.5625
0.5625
0.5625
0.5625
0.5625
0.5625
0.561556
0.439433
0.312803
0.304513
0.296594
0.28731
0.277998
0.268849
0.260416
0.253446
0.250225
0.0112218
0.0118082
0.0126364
0.013698
0.0149847
0.0164881
0.0181989
0.020106
0.0221968
0.0244567
0.0268692
0.0294167
0.0320807
0.0348427
0.0376843
0.0405877
0.0435356
0.046511
0.0494971
0.0524772
0.0554337
0.0583487
0.0612037
0.0639803
0.0666602
0.0692271
0.0716712
0.0739934
0.0762081
0.0783386
0.0804097
0.0824395
0.0844366
0.0863995
0.0883193
0.0901842
0.0919843
0.0937153
0.0953798
0.0969865
0.0985484
0.100081
0.101597
0.103109
0.104628
0.106161
0.107721
0.109318
0.110962
0.112663
0.114427
0.116258
0.118155
0.120115
0.122132
0.124198
0.126306
0.128445
0.130606
0.132779
0.134954
0.137119
0.139294
0.141445
0.143556
0.145612
0.147597
0.149506
0.151339
0.15313
0.154892
0.156633
0.158361
0.160077
0.16178
0.163468
0.165137
0.166787
0.168418
0.170032
0.171631
0.173222
0.174811
0.176403
0.178007
0.179625
0.181263
0.182922
0.184602
0.186305
0.188029
0.189776
0.191546
0.19333
0.195145
0.196993
0.198879
0.200807
0.202783
0.204816
0.206917
0.209099
0.21138
0.213785
0.216348
0.219111
0.222137
0.225507
0.229336
0.233784
0.239079
0.245561
0.253775
0.264695
0.280286
0.304671
0.345505
0.412239
0.430931
0.550511
0.562338
0.562498
0.5625
0.5625
0.5625
0.5625
0.5625
0.562498
0.5625
0.5625
0.5625
0.5625
0.5625
0.5625
0.5625
0.5625
0.5625
0.5625
0.562462
0.556444
0.406704
0.313294
0.304953
0.29707
0.287948
0.278765
0.269682
0.26124
0.254248
0.251013
0.0132748
0.013886
0.0147501
0.0158583
0.0172028
0.0187746
0.0205637
0.022558
0.0247432
0.027103
0.0296196
0.0322744
0.0350486
0.0379237
0.040882
0.0439068
0.0469819
0.0500917
0.0532202
0.0563509
0.0594657
0.0625442
0.0655633
0.068495
0.0713877
0.0741366
0.076619
0.0789198
0.0810632
0.0830931
0.0850591
0.0869957
0.0889185
0.0908238
0.0926929
0.0944999
0.0962225
0.0978498
0.0993833
0.100835
0.102225
0.103578
0.104914
0.106247
0.107589
0.10895
0.110343
0.111783
0.113285
0.114863
0.116526
0.118279
0.120122
0.12205
0.124054
0.126126
0.128254
0.130427
0.132634
0.134863
0.137102
0.139364
0.141635
0.14389
0.146109
0.148261
0.150315
0.152248
0.154062
0.155821
0.157548
0.159258
0.160962
0.162661
0.164351
0.166026
0.167679
0.169308
0.170912
0.172492
0.174051
0.175598
0.177141
0.17869
0.180255
0.181843
0.183459
0.185106
0.186783
0.18849
0.190227
0.191993
0.193789
0.195611
0.197462
0.199357
0.2013
0.203299
0.205362
0.207499
0.209725
0.212057
0.214519
0.217142
0.219966
0.223044
0.226447
0.230268
0.234635
0.239725
0.245788
0.253202
0.262587
0.275113
0.293238
0.322094
0.370742
0.449407
0.528584
0.560605
0.56248
0.5625
0.5625
0.5625
0.5625
0.5625
0.5625
0.5625
0.5625
0.5625
0.5625
0.5625
0.5625
0.5625
0.5625
0.5625
0.5625
0.562499
0.562421
0.555436
0.373967
0.313512
0.305261
0.297448
0.288486
0.279429
0.27043
0.262023
0.255034
0.251796
0.0153318
0.015972
0.0168811
0.0180505
0.0194722
0.0211365
0.023032
0.0251441
0.0274558
0.0299482
0.0326016
0.035396
0.0383127
0.041334
0.0444441
0.0476286
0.0508741
0.0541682
0.0574981
0.0608499
0.064207
0.0675472
0.0709657
0.0745787
0.0782087
0.0817148
0.0848318
0.0870728
0.089007
0.090734
0.0923833
0.0940397
0.095744
0.0974916
0.0992399
0.100925
0.102491
0.103909
0.105177
0.106317
0.107366
0.108371
0.10937
0.110383
0.111419
0.112488
0.113604
0.114785
0.116056
0.117437
0.11894
0.120572
0.12233
0.124206
0.126187
0.128261
0.130412
0.132627
0.134893
0.137196
0.139523
0.14192
0.144347
0.146787
0.149214
0.151577
0.153797
0.155794
0.157576
0.159277
0.160939
0.162593
0.164257
0.165931
0.167604
0.169263
0.170896
0.172495
0.174059
0.175586
0.177081
0.178553
0.180017
0.181489
0.182986
0.184518
0.186093
0.187713
0.189377
0.191083
0.192829
0.194613
0.196437
0.198301
0.200192
0.202143
0.20416
0.206252
0.20843
0.210708
0.213104
0.215641
0.218348
0.221262
0.224429
0.227908
0.231772
0.236121
0.241087
0.246856
0.253693
0.262009
0.272514
0.28662
0.307363
0.340859
0.396573
0.479836
0.550039
0.561784
0.562492
0.5625
0.5625
0.5625
0.5625
0.5625
0.5625
0.5625
0.5625
0.5625
0.5625
0.5625
0.5625
0.5625
0.5625
0.5625
0.5625
0.562499
0.562402
0.557124
0.32436
0.313029
0.305361
0.297741
0.288971
0.280045
0.271136
0.262781
0.255818
0.252586
0.0173673
0.0180424
0.019009
0.0202591
0.0217843
0.0235739
0.0256135
0.0278845
0.0303652
0.0330323
0.0358635
0.0388378
0.0419371
0.0451464
0.0484533
0.0518484
0.0553242
0.0588751
0.0624961
0.0661813
0.0699186
0.0739141
0.0783948
0.0832699
0.0886021
0.0940442
0.0991623
0.101834
0.103309
0.104258
0.105094
0.106047
0.107237
0.108671
0.110245
0.111783
0.113108
0.114148
0.114892
0.115377
0.115688
0.115948
0.116243
0.116605
0.117039
0.117543
0.118129
0.118823
0.119663
0.120682
0.121897
0.123311
0.124916
0.126695
0.128626
0.130688
0.132859
0.135122
0.137461
0.139861
0.14234
0.144921
0.147594
0.15036
0.153202
0.156052
0.158709
0.160872
0.162593
0.164166
0.165689
0.167226
0.168809
0.170441
0.172095
0.173738
0.175345
0.176902
0.178402
0.179842
0.181225
0.182562
0.183876
0.1852
0.186563
0.187985
0.189476
0.191038
0.192667
0.194357
0.196103
0.197902
0.199754
0.201661
0.203614
0.20563
0.207739
0.209952
0.212285
0.214754
0.217382
0.220197
0.223231
0.226525
0.230127
0.234092
0.238492
0.243419
0.249005
0.255436
0.262991
0.272122
0.28366
0.299335
0.322876
0.36128
0.422937
0.503832
0.558298
0.562391
0.562499
0.5625
0.5625
0.5625
0.5625
0.5625
0.5625
0.5625
0.5625
0.5625
0.5625
0.5625
0.5625
0.5625
0.5625
0.5625
0.5625
0.562497
0.562263
0.54785
0.323223
0.313018
0.305609
0.298096
0.289479
0.280667
0.271841
0.26354
0.256608
0.253384
0.0193621
0.020083
0.0211249
0.022479
0.024135
0.0260782
0.0283174
0.0308177
0.0335246
0.036421
0.0394818
0.0426858
0.0460179
0.049468
0.053031
0.0567065
0.0604987
0.0644162
0.0684695
0.0726677
0.077185
0.082716
0.0893118
0.0970735
0.106302
0.11548
0.125436
0.128967
0.129473
0.128352
0.127143
0.126406
0.126483
0.12744
0.129224
0.131991
0.133108
0.133527
0.133228
0.13227
0.130856
0.129389
0.128117
0.127098
0.126293
0.125653
0.125168
0.124877
0.124852
0.125153
0.125805
0.126802
0.128114
0.129703
0.131525
0.133543
0.135721
0.138034
0.14046
0.142986
0.145676
0.148535
0.1516
0.15492
0.158552
0.162456
0.166197
0.168669
0.170266
0.17154
0.172747
0.174023
0.175445
0.17702
0.178681
0.180332
0.181923
0.183432
0.184845
0.18615
0.187341
0.188426
0.189446
0.190475
0.191571
0.192771
0.194094
0.195537
0.197089
0.198735
0.200465
0.202269
0.204147
0.206101
0.208139
0.210229
0.212453
0.214824
0.217358
0.220077
0.223006
0.226175
0.229622
0.233385
0.237506
0.242032
0.247014
0.25253
0.2587
0.265711
0.273866
0.283684
0.296172
0.313497
0.340245
0.384122
0.450266
0.521816
0.56112
0.562491
0.5625
0.5625
0.5625
0.5625
0.5625
0.5625
0.5625
0.5625
0.5625
0.5625
0.5625
0.5625
0.5625
0.5625
0.5625
0.5625
0.5625
0.562495
0.561772
0.49157
0.323609
0.313455
0.306071
0.298584
0.290068
0.28134
0.272579
0.264318
0.257409
0.254192
0.0213019
0.0220881
0.023235
0.024734
0.0265721
0.0287289
0.0311932
0.0339423
0.036896
0.0401369
0.0435736
0.0470721
0.0506998
0.0544593
0.058359
0.0624154
0.066654
0.0711064
0.0758129
0.0808271
0.0874286
0.0960459
0.107262
0.119687
0.13472
0.14609
0.160249
0.163009
0.162722
0.158334
0.154324
0.151406
0.150257
0.151239
0.156028
0.163109
0.166109
0.166261
0.164752
0.161503
0.156749
0.151913
0.14777
0.144374
0.141486
0.138885
0.136485
0.134355
0.13268
0.131612
0.131207
0.131433
0.132213
0.133455
0.135074
0.136993
0.139154
0.141513
0.144043
0.146731
0.149677
0.15291
0.156525
0.160672
0.165588
0.17138
0.177261
0.179875
0.18121
0.181805
0.182384
0.183171
0.184341
0.185922
0.188091
0.190085
0.191724
0.193217
0.194549
0.195687
0.196591
0.197243
0.197698
0.198156
0.198735
0.199516
0.200528
0.201757
0.203171
0.204736
0.206422
0.208214
0.210106
0.212102
0.214217
0.216448
0.218796
0.221349
0.224124
0.227144
0.230435
0.234031
0.237967
0.242278
0.246995
0.252139
0.257723
0.263794
0.270458
0.277909
0.286504
0.296875
0.310295
0.329543
0.360317
0.410759
0.479464
0.534431
0.56184
0.562495
0.5625
0.5625
0.5625
0.5625
0.5625
0.5625
0.5625
0.5625
0.5625
0.5625
0.5625
0.5625
0.5625
0.5625
0.5625
0.5625
0.562499
0.562361
0.553318
0.431252
0.324204
0.314076
0.306691
0.299213
0.290769
0.282099
0.273377
0.265132
0.258225
0.255009
0.023171
0.0240467
0.0253376
0.0270372
0.0291292
0.0315829
0.0343658
0.0374421
0.0407251
0.0442552
0.0480123
0.0521079
0.0561927
0.0603633
0.0647172
0.0693047
0.0741843
0.0794348
0.085169
0.0924248
0.102701
0.117838
0.136553
0.151728
0.169997
0.176065
0.180972
0.207369
0.215358
0.171584
0.169026
0.166879
0.166328
0.168646
0.177743
0.190306
0.194272
0.196587
0.196077
0.192836
0.185531
0.177584
0.171118
0.166006
0.161523
0.157096
0.152484
0.147824
0.143638
0.140413
0.138339
0.137365
0.137332
0.138056
0.139371
0.141143
0.143272
0.145684
0.14834
0.151232
0.154481
0.158149
0.162406
0.167546
0.174127
0.182323
0.190523
0.192575
0.19355
0.192985
0.192763
0.192943
0.1939
0.195816
0.200339
0.203247
0.205307
0.206918
0.208297
0.209371
0.210014
0.210066
0.209502
0.208955
0.208629
0.208706
0.209229
0.210147
0.211373
0.212829
0.214457
0.216219
0.218102
0.220117
0.222297
0.224671
0.227165
0.229929
0.232993
0.236371
0.240084
0.24416
0.248635
0.253545
0.258912
0.264732
0.27093
0.277509
0.284553
0.292269
0.30114
0.311994
0.326496
0.348284
0.384501
0.443002
0.511482
0.543154
0.562098
0.562497
0.5625
0.5625
0.5625
0.5625
0.5625
0.5625
0.5625
0.5625
0.5625
0.5625
0.5625
0.5625
0.5625
0.5625
0.5625
0.562493
0.562293
0.558453
0.523421
0.384132
0.324548
0.314706
0.307416
0.299987
0.29161
0.282978
0.274262
0.265997
0.25906
0.255835
0.0249575
0.0259534
0.0274405
0.0294197
0.0318711
0.0347448
0.0379732
0.0414884
0.0452051
0.0491389
0.0533024
0.0577199
0.0625115
0.0675423
0.0725401
0.0778829
0.0837139
0.0902191
0.0976851
0.109945
0.127203
0.152342
0.176363
0.186154
0.193661
0.349994
0.538613
0.552405
0.532794
0.499451
0.232484
0.179751
0.178789
0.182847
0.199397
0.207554
0.262063
0.428741
0.429228
0.256986
0.196652
0.190805
0.186487
0.183203
0.179938
0.175869
0.170456
0.16369
0.156651
0.150769
0.146629
0.144195
0.143195
0.143323
0.144311
0.145947
0.148073
0.150579
0.153403
0.156541
0.160092
0.164159
0.168978
0.175013
0.183284
0.193135
0.199902
0.216207
0.229558
0.202521
0.201849
0.201504
0.202442
0.20613
0.216367
0.222055
0.224324
0.226261
0.228745
0.230067
0.230721
0.230045
0.22717
0.224546
0.222441
0.221222
0.220958
0.221442
0.222443
0.223785
0.225349
0.22706
0.228886
0.230853
0.233048
0.235531
0.23833
0.241318
0.244649
0.248326
0.252369
0.25682
0.261733
0.267183
0.273245
0.279936
0.286888
0.294025
0.301388
0.309171
0.318219
0.32972
0.34587
0.371432
0.415142
0.480774
0.539946
0.561651
0.562489
0.5625
0.5625
0.5625
0.5625
0.5625
0.5625
0.5625
0.5625
0.5625
0.5625
0.5625
0.5625
0.5625
0.5625
0.5625
0.5625
0.562483
0.561853
0.553043
0.492243
0.335007
0.3242
0.315296
0.308265
0.300946
0.292637
0.284015
0.27523
0.266928
0.259937
0.256677
0.0266541
0.027808
0.0295627
0.0319399
0.0349175
0.0384041
0.042263
0.0463789
0.0506701
0.055143
0.0598216
0.0647264
0.070003
0.076009
0.0824708
0.0889721
0.0963196
0.104991
0.118039
0.141662
0.165994
0.196407
0.206211
0.320785
0.533225
0.558646
0.562214
0.562403
0.562236
0.561836
0.550071
0.265912
0.197254
0.202891
0.22503
0.449702
0.560462
0.561695
0.561003
0.547117
0.245463
0.199499
0.197635
0.196964
0.196008
0.193768
0.1891
0.180806
0.170121
0.161156
0.154889
0.151064
0.149199
0.14884
0.149616
0.151236
0.153477
0.156174
0.159229
0.162638
0.166427
0.170722
0.175798
0.182343
0.192086
0.202505
0.300406
0.551741
0.554927
0.529938
0.279392
0.212339
0.212193
0.217197
0.229214
0.330299
0.542972
0.510387
0.558227
0.561216
0.538703
0.311227
0.237004
0.235046
0.233014
0.231746
0.23168
0.23246
0.233757
0.235359
0.237125
0.238955
0.240791
0.242679
0.244864
0.24745
0.250448
0.253731
0.257335
0.261295
0.265646
0.270464
0.275867
0.282046
0.289305
0.297964
0.306284
0.314345
0.322109
0.329631
0.339077
0.352352
0.37213
0.404154
0.458305
0.521368
0.555275
0.56236
0.562499
0.5625
0.5625
0.5625
0.5625
0.5625
0.5625
0.5625
0.5625
0.5625
0.5625
0.5625
0.5625
0.5625
0.5625
0.5625
0.5625
0.562491
0.561839
0.555038
0.500008
0.334727
0.32466
0.316254
0.309405
0.30219
0.293803
0.285193
0.276382
0.267998
0.260895
0.25754
0.0282574
0.0296132
0.031735
0.0346987
0.0384877
0.04292
0.0477033
0.0526617
0.0577244
0.0629084
0.0682636
0.073856
0.0798653
0.0865865
0.0947473
0.103948
0.114092
0.127241
0.159693
0.201622
0.221631
0.234822
0.504209
0.556087
0.56201
0.562457
0.562497
0.562499
0.562498
0.562495
0.562351
0.517311
0.344347
0.231864
0.300134
0.532788
0.562132
0.562495
0.562492
0.562371
0.540106
0.231085
0.315908
0.383367
0.358404
0.268714
0.221522
0.184863
0.175302
0.167164
0.160866
0.156713
0.154568