/*--------------------------------*- C++ -*----------------------------------*\
| =========                 |                                                 |
| \\      /  F ield         | OpenFOAM: The Open Source CFD Toolbox           |
|  \\    /   O peration     | Version:  2.1.0                                 |
|   \\  /    A nd           | Web:      www.OpenFOAM.org                      |
|    \\/     M anipulation  |                                                 |
\*---------------------------------------------------------------------------*/
FoamFile
{
    version     2.0;
    format      ascii;
    class       volScalarField;
    location    "44165";
    object      kr_w;
}
// * * * * * * * * * * * * * * * * * * * * * * * * * * * * * * * * * * * * * //

dimensions      [0 0 0 0 0 0 0];

internalField   nonuniform List<scalar> 
15000
(
0.5625
0.562495
0.562493
0.562376
0.561028
0.555511
0.543713
0.526758
0.507232
0.487148
0.467593
0.449043
0.43166
0.415466
0.400415
0.386439
0.373462
0.361406
0.350195
0.339761
0.330036
0.320959
0.312473
0.304527
0.297071
0.290062
0.283458
0.277224
0.271324
0.265728
0.260407
0.255336
0.250492
0.245851
0.241395
0.237106
0.232968
0.22897
0.225099
0.221346
0.217699
0.214152
0.210697
0.207326
0.204034
0.200816
0.197668
0.194585
0.191566
0.188608
0.185708
0.182866
0.180081
0.177351
0.174679
0.172062
0.169503
0.167
0.164555
0.162165
0.159833
0.157556
0.155335
0.153168
0.151055
0.148994
0.146983
0.14502
0.143104
0.141233
0.139405
0.137618
0.135869
0.134158
0.132482
0.13084
0.12923
0.127651
0.126101
0.12458
0.123086
0.121619
0.120177
0.118759
0.117365
0.115995
0.114647
0.113322
0.11202
0.11074
0.109483
0.108247
0.107035
0.105845
0.104678
0.103535
0.102415
0.10132
0.10025
0.0992054
0.0981867
0.0971946
0.0962297
0.0952926
0.0943839
0.0935043
0.0926541
0.0918335
0.0910427
0.0902815
0.0895496
0.0888466
0.0881717
0.0875238
0.0869017
0.0863041
0.08573
0.0851781
0.0846468
0.0841335
0.0836336
0.0831402
0.0826436
0.0821309
0.0815866
0.080995
0.0803484
0.0796654
0.0790122
0.0784751
0.0780697
0.0777787
0.0775748
0.0773709
0.0771649
0.0769544
0.0767372
0.0765115
0.0762759
0.0760277
0.0757631
0.0754758
0.0751569
0.0747939
0.0743686
0.0738533
0.0732011
0.0723198
0.0709789
0.0682251
0.562495
0.562489
0.562479
0.562159
0.559843
0.552562
0.539209
0.521532
0.501959
0.482165
0.463015
0.444879
0.427879
0.412022
0.397263
0.383538
0.370776
0.358905
0.347855
0.337559
0.327955
0.318985
0.310595
0.302733
0.295354
0.288415
0.281875
0.2757
0.269854
0.264309
0.259036
0.254009
0.249206
0.244604
0.240184
0.23593
0.231826
0.22786
0.22402
0.220297
0.216681
0.213162
0.209735
0.206391
0.203125
0.199932
0.196808
0.193749
0.190752
0.187813
0.184932
0.182108
0.179338
0.176624
0.173965
0.171361
0.168814
0.166321
0.163885
0.161504
0.15918
0.15691
0.154696
0.152536
0.15043
0.148374
0.146369
0.144413
0.142503
0.140637
0.138815
0.137032
0.135289
0.133583
0.131912
0.130275
0.12867
0.127096
0.125551
0.124035
0.122546
0.121082
0.119644
0.11823
0.116839
0.115471
0.114126
0.112803
0.111501
0.110222
0.108964
0.107728
0.106514
0.105321
0.104151
0.103002
0.101877
0.100774
0.0996943
0.0986387
0.097607
0.0965996
0.0956168
0.0946589
0.0937261
0.0928184
0.0919354
0.0910765
0.090241
0.0894277
0.0886353
0.087862
0.0871054
0.0863633
0.0856332
0.0849131
0.0842017
0.0834983
0.0828021
0.0821107
0.081416
0.0807012
0.0799386
0.0790877
0.0780954
0.0769012
0.0754625
0.0738203
0.0722299
0.0710841
0.070348
0.0699243
0.0697255
0.0696089
0.069569
0.0695908
0.0696403
0.0697046
0.0697929
0.0699225
0.0701017
0.0703202
0.0705555
0.0707757
0.0709444
0.0710207
0.0709502
0.0706387
0.0698571
0.067655
0.562493
0.562481
0.562349
0.561264
0.556904
0.547054
0.532008
0.513835
0.49452
0.475297
0.456786
0.439256
0.422793
0.4074
0.393038
0.379652
0.367179
0.355557
0.344722
0.334614
0.325175
0.316351
0.308091
0.300348
0.293077
0.286236
0.279788
0.273696
0.26793
0.262457
0.257253
0.252291
0.247548
0.243004
0.238638
0.234436
0.230382
0.226465
0.222673
0.218996
0.215424
0.211949
0.208563
0.205259
0.202031
0.198875
0.195785
0.192758
0.18979
0.186879
0.184023
0.181221
0.178472
0.175777
0.173134
0.170546
0.168011
0.165531
0.163105
0.160734
0.158418
0.156158
0.153952
0.1518
0.149701
0.147653
0.145656
0.143707
0.141804
0.139946
0.138131
0.136357
0.134621
0.132922
0.131259
0.129629
0.128031
0.126464
0.124926
0.123417
0.121933
0.120476
0.119043
0.117633
0.116246
0.114882
0.11354
0.112219
0.110919
0.109641
0.108383
0.107146
0.105929
0.104734
0.103558
0.102404
0.101271
0.100158
0.0990679
0.0979988
0.0969513
0.0959253
0.0949206
0.0939371
0.0929744
0.0920317
0.0911076
0.0902007
0.089309
0.0884298
0.0875599
0.0866952
0.0858309
0.0849617
0.0840815
0.0831847
0.0822658
0.0813217
0.0803536
0.0793667
0.0783549
0.0772896
0.0761158
0.07475
0.0730788
0.070966
0.0682978
0.0651044
0.0620545
0.060355
0.0594159
0.0589373
0.0587622
0.0588045
0.0590683
0.0595256
0.0600428
0.0605777
0.0611697
0.0618811
0.0627445
0.0637338
0.0647964
0.0658638
0.0668656
0.0677374
0.0684132
0.0687957
0.0686581
0.0670543
0.562385
0.562182
0.5613
0.558199
0.550775
0.538333
0.522117
0.503958
0.485262
0.466858
0.44917
0.432387
0.416576
0.401742
0.387857
0.374878
0.362754
0.351432
0.340858
0.330978
0.32174
0.313096
0.304998
0.297401
0.290265
0.283548
0.277216
0.271232
0.265565
0.260188
0.255072
0.250194
0.24553
0.24106
0.236766
0.232632
0.228645
0.224792
0.221062
0.217446
0.213933
0.210514
0.207183
0.203931
0.200753
0.197644
0.194598
0.191612
0.188682
0.185805
0.18298
0.180206
0.177482
0.174809
0.172186
0.169615
0.167095
0.164628
0.162214
0.159855
0.157549
0.155298
0.153102
0.150959
0.148869
0.146831
0.144843
0.142903
0.14101
0.139162
0.137356
0.135591
0.133865
0.132176
0.130523
0.128903
0.127314
0.125756
0.124227
0.122725
0.12125
0.119799
0.118373
0.11697
0.115588
0.114229
0.11289
0.111572
0.110275
0.108997
0.10774
0.106502
0.105283
0.104083
0.102902
0.101741
0.100599
0.0994756
0.0983719
0.0972871
0.0962209
0.0951729
0.0941424
0.0931288
0.0921307
0.0911464
0.0901737
0.0892098
0.0882508
0.0872921
0.0863277
0.08535
0.0843495
0.0833142
0.0822293
0.0810769
0.0798367
0.078493
0.0770555
0.0755798
0.0740883
0.0725429
0.0708527
0.0688806
0.0664444
0.0633237
0.0593138
0.05431
0.0497573
0.0483296
0.0476049
0.0472357
0.047095
0.0472685
0.0478253
0.048807
0.049815
0.0507626
0.0517711
0.053003
0.0545541
0.0563695
0.058359
0.0604034
0.0623773
0.0641741
0.0657038
0.0668607
0.0674186
0.0664353
0.561148
0.56002
0.557139
0.550989
0.540619
0.526505
0.509991
0.492388
0.47461
0.4572
0.440449
0.4245
0.409412
0.395198
0.381843
0.369317
0.357584
0.3466
0.33632
0.326698
0.317691
0.309253
0.301342
0.293917
0.286939
0.28037
0.274174
0.268318
0.262773
0.257509
0.2525
0.247723
0.243155
0.238776
0.234569
0.230519
0.226614
0.222841
0.219189
0.215648
0.212208
0.20886
0.205596
0.20241
0.199293
0.196241
0.19325
0.190313
0.187429
0.184594
0.181806
0.179065
0.176371
0.173723
0.171123
0.168571
0.166068
0.163615
0.161215
0.158867
0.156572
0.154332
0.152145
0.150012
0.147933
0.145905
0.143928
0.142
0.140118
0.138282
0.136488
0.134735
0.133021
0.131344
0.129702
0.128093
0.126516
0.124969
0.123451
0.121959
0.120493
0.119052
0.117634
0.116238
0.114864
0.11351
0.112176
0.110862
0.109567
0.108291
0.107033
0.105794
0.104573
0.103369
0.102182
0.101013
0.0998607
0.0987256
0.0976069
0.0965043
0.095417
0.094344
0.0932843
0.0922363
0.091198
0.0901666
0.0891385
0.0881092
0.0870728
0.0860217
0.0849458
0.0838321
0.0826626
0.0814129
0.0800487
0.0785224
0.0767721
0.0747422
0.0724775
0.0702541
0.0681597
0.0661204
0.063983
0.06155
0.0585837
0.0548083
0.049956
0.0435908
0.0387723
0.0385931
0.0381307
0.0379027
0.0377665
0.0378922
0.0384632
0.0398905
0.0411949
0.0422073
0.0432406
0.0446223
0.046595
0.0490439
0.05184
0.0548319
0.0578005
0.0605597
0.0629763
0.064928
0.066187
0.0658137
0.556078
0.55323
0.547794
0.539021
0.526946
0.51237
0.496323
0.479664
0.462984
0.446653
0.430887
0.415807
0.401473
0.387907
0.375109
0.363065
0.351747
0.341124
0.331162
0.321822
0.313065
0.304854
0.29715
0.289916
0.283115
0.276712
0.270672
0.264964
0.259557
0.254425
0.24954
0.24488
0.240423
0.236151
0.232046
0.228096
0.224288
0.220609
0.217049
0.213598
0.210246
0.206983
0.203801
0.200692
0.197649
0.194666
0.191739
0.188862
0.186032
0.183245
0.180501
0.177799
0.175138
0.17252
0.169945
0.167414
0.164929
0.162492
0.160105
0.157769
0.155486
0.153256
0.15108
0.148958
0.14689
0.144874
0.142909
0.140994
0.139126
0.137303
0.135523
0.133785
0.132085
0.130422
0.128794
0.127199
0.125635
0.124101
0.122595
0.121116
0.119662
0.118232
0.116824
0.115437
0.114071
0.112725
0.111397
0.110087
0.108795
0.107521
0.106263
0.105024
0.1038
0.102591
0.101398
0.10022
0.0990568
0.0979082
0.0967732
0.0956509
0.0945403
0.0934399
0.092348
0.0912623
0.0901797
0.0890962
0.0880068
0.0869048
0.0857814
0.0846251
0.0834204
0.0821453
0.0807686
0.0792441
0.0775014
0.075433
0.0728824
0.0696891
0.0660011
0.062849
0.0602551
0.0579671
0.0557137
0.0532381
0.0502822
0.046577
0.0418746
0.0352616
0.0331528
0.0288875
0.0247232
0.0185947
0.0142646
0.0160508
0.022547
0.0361967
0.0371297
0.0375118
0.0379282
0.0387523
0.0405207
0.0430386
0.0461241
0.0497852
0.053597
0.0572162
0.0604384
0.0631182
0.065022
0.0652077
0.545174
0.540744
0.533541
0.523504
0.511058
0.496915
0.481792
0.466264
0.450741
0.435498
0.420712
0.406495
0.392912
0.379997
0.367763
0.356207
0.345315
0.335066
0.325433
0.316386
0.307894
0.299923
0.29244
0.285411
0.278802
0.272581
0.266713
0.261169
0.255918
0.250933
0.246188
0.241661
0.237329
0.233178
0.22919
0.225354
0.221657
0.218088
0.214636
0.21129
0.20804
0.204876
0.20179
0.198772
0.195817
0.192916
0.190064
0.187256
0.184489
0.18176
0.179066
0.176408
0.173786
0.1712
0.168652
0.166144
0.163679
0.161258
0.158885
0.156561
0.154289
0.152069
0.149903
0.147792
0.145736
0.143732
0.141781
0.139881
0.138029
0.136222
0.134459
0.132737
0.131054
0.129407
0.127795
0.126216
0.124667
0.123149
0.121658
0.120193
0.118753
0.117336
0.11594
0.114565
0.113208
0.11187
0.11055
0.109245
0.107957
0.106685
0.105429
0.104188
0.102962
0.101749
0.100549
0.0993618
0.0981871
0.0970239
0.0958712
0.0947278
0.0935921
0.0924622
0.0913356
0.0902091
0.0890786
0.0879387
0.0867824
0.0856005
0.0843808
0.0831064
0.0817539
0.0802891
0.078661
0.0767902
0.0745498
0.0717309
0.0680018
0.0629717
0.0569894
0.0531851
0.0505948
0.0485548
0.0466656
0.0446533
0.0422954
0.0393939
0.0357823
0.0298668
0.0185488
0.000117424
2.95874e-06
3.46829e-08
0.000137966
0.00387531
0.00461124
0.00635181
0.00933061
0.012014
0.017805
0.02536
0.0379328
0.0397542
0.0421397
0.0460115
0.0503352
0.0545241
0.0583188
0.0615549
0.0639809
0.0646348
0.52941
0.524167
0.516341
0.506194
0.494209
0.480949
0.466929
0.452565
0.438168
0.423965
0.410113
0.396721
0.38386
0.371577
0.359894
0.34882
0.33835
0.328474
0.319172
0.310422
0.302199
0.294474
0.28722
0.280406
0.274001
0.267974
0.262292
0.256927
0.251846
0.247024
0.242433
0.238051
0.23386
0.229843
0.225987
0.222279
0.218709
0.215264
0.211935
0.20871
0.205578
0.20253
0.199555
0.196644
0.193789
0.190983
0.188219
0.185493
0.182799
0.180135
0.1775
0.174892
0.172313
0.169763
0.167245
0.164762
0.162316
0.159912
0.157552
0.155239
0.152976
0.150766
0.14861
0.14651
0.144465
0.142475
0.140539
0.138655
0.13682
0.135032
0.133288
0.131585
0.129921
0.128293
0.126699
0.125138
0.123607
0.122106
0.120633
0.119185
0.117761
0.116359
0.114978
0.113616
0.112272
0.110944
0.109632
0.108335
0.107052
0.105782
0.104527
0.103287
0.102058
0.10084
0.0996333
0.0984367
0.0972496
0.096071
0.0948995
0.0937336
0.0925713
0.09141
0.0902464
0.0890765
0.0878948
0.0866943
0.0854658
0.0841969
0.0828709
0.0814641
0.0799428
0.0782565
0.0763282
0.0740356
0.0711775
0.0674062
0.0621339
0.0545934
0.0453761
0.0420699
0.0401984
0.0388555
0.0376664
0.0364249
0.0349901
0.0332388
0.031036
0.0256682
0.0113648
0.00138192
3.70778e-05
6.27472e-07
5.14646e-07
4.82811e-05
8.38086e-05
0.000158711
0.000271363
0.000349366
0.00534461
0.00736986
0.0227044
0.0321226
0.0412581
0.044757
0.0486896
0.0528087
0.0567754
0.0603161
0.0630994
0.0641066
0.511199
0.505799
0.498097
0.48844
0.477267
0.465022
0.452102
0.438836
0.42548
0.412231
0.399238
0.386611
0.374426
0.362738
0.351578
0.340965
0.330903
0.321389
0.31241
0.303951
0.295994
0.288515
0.28149
0.274895
0.268699
0.262875
0.257391
0.252217
0.247321
0.242675
0.238252
0.234031
0.229994
0.226126
0.222414
0.218848
0.215418
0.212113
0.208923
0.205836
0.202841
0.199925
0.197078
0.194291
0.191553
0.188857
0.186196
0.183564
0.180955
0.178368
0.175799
0.173249
0.170717
0.168208
0.165722
0.163265
0.160839
0.15845
0.156102
0.153799
0.151544
0.149341
0.147194
0.145102
0.143069
0.141093
0.139173
0.137307
0.135493
0.133726
0.132003
0.130322
0.128679
0.127072
0.125499
0.123958
0.122448
0.120967
0.119513
0.118085
0.11668
0.115297
0.113933
0.112587
0.111257
0.109942
0.10864
0.107351
0.106074
0.104809
0.103555
0.102312
0.101082
0.0998602
0.0986465
0.0974402
0.0962404
0.0950457
0.0938547
0.0926652
0.0914747
0.0902801
0.0890773
0.0878611
0.0866245
0.0853589
0.0840521
0.0826881
0.0812442
0.0796884
0.0779742
0.0760317
0.0737545
0.0709737
0.0674078
0.0625616
0.0555893
0.0453929
0.0330334
0.0314007
0.0302968
0.0296488
0.0292108
0.0288005
0.0283381
0.027788
0.0270481
0.0211856
0.00566438
0.000465934
1.41362e-05
2.53701e-07
6.93759e-09
5.95319e-07
1.31409e-06
3.14648e-06
5.48207e-06
6.35961e-06
0.000163946
0.000237695
0.00141299
0.0294576
0.0410469
0.0442668
0.0478719
0.0517838
0.0557224
0.0593838
0.0623777
0.0636254
0.492481
0.487266
0.480007
0.471039
0.460738
0.449467
0.437551
0.425262
0.412827
0.400426
0.388201
0.376262
0.364692
0.353549
0.342874
0.332691
0.323011
0.313837
0.305163
0.296982
0.289278
0.282035
0.275234
0.268854
0.262869
0.257252
0.251975
0.247003
0.242305
0.23785
0.233611
0.229566
0.225696
0.221989
0.218435
0.215025
0.211751
0.208602
0.205569
0.202638
0.199798
0.197035
0.194336
0.191692
0.18909
0.186522
0.183981
0.181459
0.17895
0.176451
0.173959
0.171474
0.168997
0.166531
0.164081
0.16165
0.159244
0.156869
0.154531
0.152234
0.149984
0.147786
0.145644
0.14356
0.141536
0.139574
0.137671
0.135825
0.134033
0.132291
0.130593
0.128937
0.127318
0.125734
0.124184
0.122666
0.121179
0.119721
0.11829
0.116885
0.115503
0.114141
0.112798
0.111471
0.110158
0.108858
0.107568
0.106289
0.10502
0.103759
0.102508
0.101265
0.100034
0.0988074
0.0975864
0.0963697
0.0951561
0.093944
0.0927317
0.0915166
0.0902957
0.0890651
0.0878199
0.0865536
0.0852578
0.0839212
0.0825287
0.081059
0.0794827
0.0777578
0.0758234
0.0735897
0.0709219
0.0676086
0.0632981
0.057378
0.0488871
0.0369664
0.0247378
0.0158715
0.00959611
0.0033649
0.000725222
0.000329088
0.00144005
0.00354855
0.0135328
0.00974703
0.00124452
2.74797e-05
6.00073e-07
1.04215e-08
1.76535e-10
7.87644e-09
2.04268e-08
5.75886e-08
9.61107e-08
1.04861e-07
3.00042e-06
4.62988e-06
4.95143e-05
0.0381598
0.0410925
0.043998
0.0475207
0.0511871
0.0550154
0.0586923
0.0617913
0.0631857
0.474332
0.469425
0.462679
0.454395
0.444891
0.434473
0.423416
0.411961
0.400312
0.388639
0.37708
0.365744
0.354717
0.344061
0.333821
0.324026
0.314693
0.30583
0.297435
0.289506
0.282034
0.275008
0.268414
0.262237
0.256455
0.251046
0.245978
0.24122
0.236736
0.232491
0.228455
0.224602
0.220915
0.217383
0.213999
0.210757
0.207653
0.204678
0.201821
0.199069
0.196407
0.19382
0.191293
0.188814
0.186372
0.183955
0.181554
0.179161
0.176769
0.174374
0.171971
0.169562
0.167147
0.16473
0.162317
0.159913
0.157526
0.155163
0.152831
0.150537
0.148288
0.146089
0.143947
0.141866
0.139841
0.13788
0.135988
0.134167
0.132403
0.13069
0.129023
0.127397
0.125806
0.12425
0.122727
0.121235
0.119774
0.118342
0.116937
0.115559
0.114203
0.112868
0.11155
0.110246
0.108954
0.107672
0.106398
0.105131
0.103871
0.102617
0.101368
0.100126
0.0988923
0.0976621
0.0964337
0.095206
0.0939777
0.0927471
0.0915121
0.0902696
0.0890162
0.087747
0.0864562
0.0851358
0.0837752
0.0823602
0.0808713
0.0792818
0.0775543
0.0756362
0.0734531
0.0708979
0.067813
0.0639532
0.0589075
0.0519714
0.042185
0.0292891
0.0191753
0.00701491
0.000680032
9.01413e-06
5.13743e-08
1.06473e-06
6.9467e-05
0.000105859
8.55862e-05
0.000362235
4.59061e-05
1.44976e-06
2.95843e-08
4.70676e-10
6.60708e-12
1.10918e-10
3.38338e-10
1.06593e-09
1.53603e-09
1.41744e-09
3.60129e-08
4.50058e-08
0.00210695
0.0383955
0.0410569
0.0437868
0.0472007
0.0507921
0.0545173
0.0581671
0.0613062
0.0627785
0.457242
0.452653
0.44638
0.438687
0.429848
0.420129
0.409773
0.398999
0.387995
0.376925
0.365922
0.355097
0.344534
0.3343
0.324439
0.314985
0.305955
0.297362
0.289209
0.281497
0.274222
0.26738
0.260964
0.254964
0.249366
0.244151
0.239295
0.234763
0.230514
0.226506
0.222697
0.219059
0.215572
0.212227
0.209025
0.205964
0.203045
0.200262
0.197605
0.195058
0.192602
0.190221
0.187895
0.185611
0.183356
0.181117
0.178884
0.176646
0.174394
0.172121
0.169825
0.167503
0.165159
0.162796
0.160423
0.158048
0.155678
0.153324
0.150994
0.148697
0.146441
0.144235
0.142085
0.139978
0.137939
0.135975
0.134089
0.132282
0.13055
0.128873
0.127242
0.12565
0.124094
0.122569
0.121076
0.119613
0.118182
0.116781
0.115409
0.114063
0.112741
0.111439
0.110153
0.10888
0.107616
0.106357
0.105103
0.103852
0.102604
0.101358
0.100114
0.0988733
0.0976342
0.0964009
0.0951658
0.0939276
0.092685
0.0914357
0.0901772
0.088906
0.0876177
0.0863065
0.084965
0.0835833
0.0821482
0.080642
0.0790404
0.0773106
0.0754078
0.0732706
0.0708144
0.0679208
0.0644175
0.0600335
0.0543009
0.0464333
0.0355594
0.022228
0.0155244
0.00244574
1.62091e-05
8.22085e-08
4.50445e-10
1.70099e-09
4.13332e-07
1.0535e-06
1.34372e-06
6.97942e-06
1.23338e-06
3.53222e-08
7.30263e-10
1.23353e-11
1.8736e-13
1.62533e-12
6.48145e-12
2.22195e-11
2.26373e-11
1.63195e-11
3.40223e-10
5.78721e-05
0.011486
0.0382792
0.0409294
0.0435999
0.0469133
0.0504477
0.0541404
0.0577496
0.0608914
0.0623938
0.441389
0.437081
0.431197
0.423972
0.41565
0.406468
0.39665
0.3864
0.375898
0.365302
0.354745
0.344334
0.334154
0.32427
0.314727
0.305557
0.29678
0.288407
0.280447
0.272901
0.265772
0.259062
0.252771
0.246898
0.241443
0.236399
0.231748
0.227459
0.223479
0.219746
0.216204
0.212811
0.209545
0.206403
0.203391
0.200521
0.197802
0.195233
0.192803
0.190495
0.188284
0.186147
0.184061
0.18201
0.179978
0.177954
0.175924
0.173874
0.171793
0.16967
0.167501
0.165284
0.163022
0.160722
0.158393
0.156046
0.153691
0.151341
0.149007
0.146698
0.144427
0.142202
0.140003
0.137864
0.135797
0.133815
0.131929
0.130141
0.128447
0.126813
0.125227
0.123678
0.122159
0.12067
0.119209
0.117779
0.11638
0.115014
0.113678
0.112372
0.11109
0.10983
0.108585
0.107351
0.106121
0.104894
0.103665
0.102434
0.101201
0.0999666
0.0987299
0.0974918
0.0962519
0.0950168
0.0937754
0.0925262
0.0912676
0.089997
0.0887112
0.0874058
0.0860755
0.0847131
0.0833094
0.081852
0.0803248
0.0787063
0.076968
0.0750722
0.072969
0.0705921
0.0678526
0.0646282
0.0607397
0.055893
0.0495589
0.0408775
0.0291214
0.0155327
0.0126746
0.000760828
9.87399e-06
9.43914e-08
6.38223e-10
8.36269e-12
2.30428e-09
8.64586e-09
1.55413e-08
9.21179e-08
1.80411e-08
5.5299e-10
1.19461e-11
2.16572e-13
3.3117e-15
2.22674e-14
1.62499e-13
2.35327e-12
1.33375e-10
1.57012e-08
2.33831e-06
0.000377158
0.0164484
0.0381266
0.0407852
0.0434352
0.0466789
0.0501484
0.0537946
0.057388
0.0605222
0.0620233
0.426811
0.422727
0.417134
0.410248
0.40229
0.393483
0.384039
0.374155
0.36401
0.35376
0.343534
0.33344
0.323558
0.31395
0.304657
0.295709
0.287123
0.278911
0.271077
0.263628
0.256569
0.249906
0.243652
0.23782
0.23228
0.227198
0.222752
0.218744
0.215103
0.211734
0.208542
0.205461
0.202463
0.19955
0.196745
0.194083
0.191588
0.189269
0.187116
0.185105
0.183205
0.18138
0.179599
0.177842
0.176095
0.174343
0.172572
0.170764
0.168902
0.166971
0.164962
0.162875
0.160713
0.158487
0.156208
0.15389
0.151549
0.149198
0.146851
0.144521
0.142219
0.139933
0.137677
0.135473
0.13334
0.131304
0.129391
0.127616
0.125972
0.124398
0.122872
0.121378
0.119908
0.11846
0.117036
0.115642
0.114281
0.112955
0.111665
0.110407
0.109179
0.107973
0.106784
0.105602
0.10442
0.103233
0.102038
0.100835
0.0996223
0.098402
0.0971747
0.0959413
0.0947018
0.0934588
0.0922119
0.0909512
0.0896744
0.0883781
0.0870584
0.0857098
0.0843255
0.0828967
0.0814119
0.0798565
0.0782117
0.0764535
0.0745511
0.0724651
0.0701448
0.0675246
0.0645177
0.0610042
0.0568012
0.0515881
0.0447742
0.0354751
0.0232771
0.0101736
0.00231162
0.000116448
1.23024e-06
1.04071e-08
7.05305e-11
4.12949e-13
1.14592e-11
5.76234e-11
1.33179e-10
8.54699e-10
1.73659e-10
5.95548e-12
1.3684e-13
2.12101e-15
0
0
2.29882e-15
1.86137e-12
3.70132e-10
4.46237e-08
4.7994e-06
0.000441319
0.0225971
0.038059
0.0406842
0.0433051
0.0464821
0.0498902
0.0534862
0.0570462
0.0601627
0.0616568
0.413481
0.409559
0.404157
0.397477
0.389731
0.381134
0.371897
0.36222
0.352284
0.342248
0.332241
0.322364
0.312695
0.303286
0.294174
0.285378
0.276913
0.268782
0.260989
0.253536
0.246429
0.239681
0.233076
0.226397
0.219971
0.214014
0.208907
0.205339
0.202326
0.199686
0.197206
0.194757
0.192277
0.189776
0.187316
0.184981
0.182845
0.180937
0.17925
0.177751
0.176384
0.175086
0.173807
0.172523
0.17122
0.169887
0.16851
0.167065
0.165527
0.163874
0.162096
0.16019
0.158166
0.156037
0.153823
0.151542
0.149215
0.146858
0.14449
0.142123
0.139774
0.137396
0.135031
0.132695
0.130413
0.128229
0.12621
0.124421
0.122847
0.121362
0.119929
0.118518
0.117116
0.115721
0.114343
0.112992
0.111678
0.110404
0.109173
0.107983
0.10683
0.105705
0.104599
0.103497
0.102387
0.101263
0.100119
0.0989554
0.0977732
0.0965748
0.0953623
0.0941374
0.0929007
0.0916518
0.0904002
0.0891257
0.0878252
0.0864946
0.0851287
0.0837208
0.0822626
0.0807435
0.0791502
0.0774668
0.0756738
0.0737474
0.0716586
0.0693711
0.0668385
0.0640008
0.0607774
0.0570521
0.0526338
0.0471676
0.040002
0.0303062
0.0182127
0.00666214
0.000791996
4.38526e-05
4.70569e-07
3.9545e-09
2.70415e-11
1.57514e-13
5.0936e-14
3.13551e-13
8.69579e-13
5.85318e-12
1.21241e-12
4.6478e-14
4.66749e-16
0
0
0
0
1.65423e-13
1.20792e-09
8.39137e-08
5.97189e-06
0.000334105
0.0348167
0.0382089
0.0406517
0.0432043
0.0463055
0.049652
0.0531961
0.0567167
0.0598057
0.0612894
0.401344
0.397522
0.392212
0.385606
0.377914
0.369355
0.36015
0.350511
0.340632
0.330676
0.320773
0.311018
0.301476
0.29219
0.283182
0.274462
0.26603
0.257882
0.250008
0.242403
0.235068
0.227603
0.219649
0.211445
0.202952
0.19475
0.187424
0.183737
0.181741
0.180471
0.17936
0.178104
0.176551
0.174701
0.172696
0.170765
0.16912
0.167843
0.166935
0.166347
0.165971
0.165657
0.165302
0.164867
0.164348
0.163748
0.163053
0.162234
0.161248
0.160063
0.158662
0.157049
0.155239
0.153261
0.151145
0.14892
0.146614
0.144252
0.141854
0.139436
0.136984
0.134478
0.131932
0.129349
0.126748
0.124193
0.121856
0.119986
0.118518
0.117191
0.115921
0.114653
0.11336
0.112043
0.110721
0.109425
0.10817
0.106967
0.10582
0.10473
0.103693
0.1027
0.101733
0.100766
0.0997805
0.0987614
0.0977033
0.0966062
0.0954743
0.0943126
0.0931259
0.0919175
0.0906887
0.0894391
0.0881754
0.0868884
0.08556
0.0841855
0.0827585
0.0812717
0.0797155
0.0780786
0.0763477
0.0745075
0.0725412
0.0704299
0.0681516
0.0656781
0.0629715
0.0599794
0.0566259
0.0527933
0.0482725
0.0426595
0.0352469
0.0253564
0.0138542
0.00434761
0.000260138
6.68903e-06
7.55157e-08
6.16818e-10
4.15834e-12
2.44583e-14
3.17516e-18
5.01676e-16
3.97213e-15
3.08531e-14
6.17887e-15
3.17516e-18
0
0
0
0
0
1.32944e-14
2.02333e-09
1.90027e-07
1.45012e-05
0.000937617
0.0351459
0.0382123
0.0405708
0.0430824
0.0461208
0.0494124
0.0529078
0.0563889
0.059448
0.0609199
0.390317
0.386519
0.381192
0.374534
0.366767
0.358127
0.34874
0.338897
0.328908
0.318896
0.308985
0.299258
0.289763
0.280522
0.271539
0.262805
0.254299
0.245997
0.23787
0.229893
0.221756
0.212355
0.201857
0.190371
0.17777
0.166222
0.154658
0.150773
0.150226
0.151443
0.152767
0.15358
0.153494
0.152441
0.150495
0.147532
0.146353
0.145913
0.146227
0.147235
0.14874
0.150317
0.151699
0.152816
0.153705
0.154416
0.154957
0.155283
0.155311
0.154974
0.154247
0.153143
0.151702
0.149978
0.148026
0.145896
0.143634
0.141273
0.13884
0.136352
0.133753
0.131047
0.128208
0.125201
0.121993
0.118634
0.115501
0.113474
0.112183
0.111163
0.110205
0.109201
0.108092
0.106876
0.105608
0.104362
0.103174
0.102059
0.101024
0.100078
0.0992217
0.0984473
0.0977244
0.0970001
0.0962347
0.0954021
0.0944926
0.0935092
0.0924621
0.0913628
0.0902212
0.0890438
0.0878336
0.0865901
0.0853101
0.0840146
0.0826563
0.0812299
0.0797295
0.0781476
0.0764751
0.0747011
0.0728141
0.0708024
0.0686559
0.0663662
0.0639245
0.0613152
0.0585094
0.0554595
0.0520876
0.0482638
0.043746
0.0380638
0.0304657
0.0205474
0.0100645
0.00283622
8.46882e-05
5.37209e-07
3.8267e-09
2.72384e-11
1.77841e-13
4.28647e-16
0
0
0
0
0
0
0
0
0
0
0
2.31373e-11
2.121e-09
2.94863e-07
4.45659e-05
0.00548489
0.0350339
0.0380768
0.0404202
0.0429157
0.0459077
0.0491541
0.0526077
0.0560545
0.059087
0.0605481
0.380305
0.376427
0.37094
0.364051
0.356007
0.347076
0.337471
0.327423
0.317315
0.306945
0.29667
0.286879
0.277355
0.268084
0.259039
0.250179
0.241456
0.23281
0.224181
0.2155
0.204781
0.191842
0.176519
0.161221
0.14467
0.133358
0.120522
0.118166
0.118409
0.122183
0.125736
0.128385
0.129444
0.128538
0.124214
0.118081
0.115574
0.115448
0.116701
0.119445
0.123575
0.127921
0.131766
0.135005
0.137823
0.140414
0.142849
0.145048
0.146803
0.147933
0.148365
0.148124
0.147297
0.145988
0.144303
0.14233
0.140143
0.137796
0.135325
0.132749
0.129982
0.127013
0.123774
0.120157
0.116005
0.111291
0.106692
0.104705
0.103704
0.103262
0.102832
0.102251
0.101392
0.100243
0.0986858
0.0972744
0.096128
0.0950944
0.0941812
0.0934076
0.0927965
0.0923589
0.0920541
0.0917482
0.0913633
0.0908459
0.0901797
0.0893765
0.0884606
0.0874573
0.0863869
0.0852628
0.0840907
0.0828695
0.0815929
0.0802654
0.0788896
0.0774176
0.0758451
0.0741666
0.0723749
0.0704618
0.0684197
0.0662435
0.0639337
0.0614972
0.0589463
0.0562795
0.0534745
0.0504826
0.0472107
0.0435027
0.0390659
0.0333471
0.0255752
0.0157744
0.00670101
0.00187654
4.04072e-05
3.01618e-07
2.06589e-09
1.32722e-11
7.89854e-14
3.17516e-18
0
0
0
0
0
0
0
0
0
0
0
2.08843e-09
5.71484e-08
8.50774e-06
0.000577512
0.0126286
0.0348618
0.0378846
0.0402189
0.0427012
0.045655
0.0488641
0.0522848
0.0557063
0.0587213
0.0601739
0.371241
0.367171
0.361363
0.354036
0.345474
0.336006
0.325932
0.315518
0.305136
0.294712
0.284352
0.273816
0.263996
0.254595
0.245378
0.236249
0.227112
0.217861
0.208365
0.197144
0.182561
0.163398
0.14278
0.12809
0.112399
0.107612
0.103883
0.0857918
0.0809113
0.111128
0.113184
0.114938
0.115393
0.113493
0.106323
0.0971193
0.0943709
0.0927995
0.0931433
0.0953573
0.100526
0.106444
0.1115
0.115659
0.119429
0.123269
0.1274
0.131715
0.135718
0.138886
0.140965
0.141951
0.141985
0.141251
0.139926
0.138162
0.136074
0.133746
0.13123
0.128545
0.125595
0.122345
0.118677
0.114391
0.109119
0.102877
0.0969671
0.0955375
0.0948656
0.0952544
0.0954075
0.0952833
0.094625
0.0933201
0.0903036
0.0884118
0.0870933
0.0860747
0.0852112
0.0845444
0.0841473
0.0841155
0.0844631
0.0848024
0.0850044
0.084957
0.084632
0.0840655
0.0833137
0.0824286
0.0814494
0.0804011
0.0792942
0.0781246
0.076877
0.0755386
0.0741551
0.072648
0.0710093
0.0692413
0.0673435
0.0653133
0.0631475
0.0608458
0.0584153
0.0558772
0.0532804
0.0506397
0.0479372
0.0451181
0.04205
0.0385313
0.0342051
0.0284298
0.0204736
0.0110065
0.00368301
0.00125712
2.4622e-05
1.88258e-07
1.28e-09
7.91619e-12
4.5081e-14
3.17516e-18
0
0
0
0
0
0
0
0
0
0
2.04221e-08
4.15218e-07
1.26416e-05
0.000250409
0.00270973
0.0205454
0.0347625
0.0376908
0.0399849
0.0424386
0.0453532
0.0485305
0.0519286
0.0553382
0.0583496
0.059798
0.36305
0.358668
0.352348
0.344322
0.334931
0.32461
0.31379
0.302821
0.292025
0.28138
0.270877
0.260484
0.249976
0.23969
0.230129
0.220537
0.210719
0.200468
0.189502
0.173077
0.1527
0.127529
0.107382
0.100075
0.0947893
0.0280104
0.00157521
0.000636778
0.00199672
0.00474349
0.0712796
0.104798
0.105526
0.10249
0.0909249
0.0856753
0.0570288
0.0129917
0.0129208
0.0592771
0.0927554
0.0967689
0.0998349
0.102227
0.104658
0.107764
0.11203
0.117592
0.123662
0.128971
0.132846
0.135178
0.136148
0.136024
0.135066
0.133494
0.13148
0.129147
0.126567
0.123759
0.120657
0.117198
0.113223
0.108428
0.102167
0.0951513
0.0905916
0.080408
0.0728487
0.0888806
0.0893172
0.0895414
0.0889318
0.0865714
0.0803136
0.0770148
0.0757328
0.0746536
0.0732903
0.0725736
0.0722214
0.0725852
0.0741523
0.0756087
0.0767951
0.0774899
0.077641
0.0773639
0.0767939
0.0760355
0.0751601
0.0742129
0.0732136
0.0721505
0.0709805
0.0696773
0.0682339
0.0667227
0.0650735
0.0632953
0.06139
0.0593524
0.0571724
0.0548372
0.0523381
0.049694
0.0470688
0.0444963
0.0419667
0.0394223
0.0366238
0.0332978
0.0290298
0.0231303
0.0150656
0.00656472
0.00148085
5.1997e-05
6.51963e-07
4.68826e-09
3.09537e-11
1.88935e-13
6.09631e-16
0
0
0
0
0
0
0
0
0
0
0
2.2859e-08
1.02956e-06
3.96414e-05
0.000595301
0.00542005
0.0318508
0.034863
0.0375099
0.0397119
0.0421151
0.0449873
0.0481389
0.0515413
0.0549448
0.0579608
0.0594168
0.355658
0.350826
0.343758
0.334676
0.324011
0.312402
0.300507
0.288769
0.277431
0.266458
0.255783
0.245359
0.234907
0.223832
0.212759
0.20238
0.191449
0.179497
0.16316
0.13765
0.115669
0.0929209
0.0865204
0.0358598
0.00196496
0.000238338
1.74758e-05
5.92196e-06
1.61582e-05
4.06574e-05
0.000789832
0.0553744
0.0923514
0.0886413
0.0753381
0.0101362
0.000125317
4.92882e-05
9.19202e-05
0.000986846
0.0646761
0.0908571
0.092096
0.0925457
0.0931899
0.0947158
0.0979695
0.104006
0.112299
0.119742
0.125229
0.128699
0.130427
0.130762
0.130039
0.128542
0.1265
0.124084
0.121404
0.11848
0.11531
0.111817
0.107819
0.102863
0.0958766
0.0888911
0.0422971
0.000680101
0.000473901
0.00220941
0.0499048
0.0827257
0.0828142
0.0798245
0.0730354
0.0331368
0.00126968
0.00377611
0.000264601
7.87434e-05
0.00156883
0.0387718
0.0689143
0.06993
0.0709982
0.0716726
0.0717074
0.0712922
0.070606
0.0697668
0.068852
0.0679155
0.0669871
0.0660445
0.0649682
0.0637146
0.0622885
0.0607601
0.0591205
0.0573639
0.0554872
0.0534721
0.051288
0.0488843
0.046184
0.0431278
0.0403512
0.0378019
0.0354706
0.0333225
0.0307705
0.0274395
0.0229827
0.0168815
0.00907324
0.00287177
0.000451612
8.56212e-06
8.01326e-08
5.54982e-10
3.44956e-12
1.95336e-14
0
0
0
0
0
0
0
0