/*--------------------------------*- C++ -*----------------------------------*\
| =========                 |                                                 |
| \\      /  F ield         | OpenFOAM: The Open Source CFD Toolbox           |
|  \\    /   O peration     | Version:  2.1.0                                 |
|   \\  /    A nd           | Web:      www.OpenFOAM.org                      |
|    \\/     M anipulation  |                                                 |
\*---------------------------------------------------------------------------*/
FoamFile
{
    version     2.0;
    format      ascii;
    class       surfaceScalarField;
    location    "44165";
    object      phi_o;
}
// * * * * * * * * * * * * * * * * * * * * * * * * * * * * * * * * * * * * * //

dimensions      [1 -2 -2 0 0 0 0];

internalField   nonuniform List<scalar> 
29750
(
18.593
18.6173
11.2272
7.36593
7.75903
3.4682
5.86063
1.90001
4.70371
1.17093
3.96014
0.790033
3.47164
0.573885
3.14077
0.44179
2.90628
0.354341
2.73285
0.292005
2.60082
0.244935
2.49886
0.207879
2.42002
0.177819
2.35971
0.152896
2.31465
0.131897
2.28241
0.113998
2.26104
0.0986197
2.24897
0.0853472
2.24485
0.0738755
2.24748
0.063977
2.25581
0.055477
2.26886
0.0482361
2.28575
0.042139
2.30564
0.0370838
2.32778
0.0329757
2.35148
0.0297238
2.37612
0.0272384
2.40115
0.025431
2.42609
0.0242172
2.45054
0.0235173
2.47414
0.0232594
2.49662
0.0233812
2.51773
0.0238305
2.53726
0.0245646
2.55505
0.0255481
2.57094
0.0267463
2.58481
0.028123
2.59657
0.0296368
2.60615
0.0312413
2.61356
0.032884
2.61885
0.0345074
2.6221
0.0360515
2.6235
0.0374564
2.62325
0.038664
2.62164
0.0396202
2.61896
0.0402769
2.61559
0.0405933
2.6119
0.0405387
2.60829
0.0400944
2.60519
0.0392557
2.60298
0.0380311
2.60205
0.0364425
2.60273
0.0345238
2.60532
0.0323207
2.61006
0.0298886
2.61712
0.0272911
2.62661
0.0245974
2.63855
0.0218802
2.65292
0.0192122
2.6696
0.0166632
2.68842
0.0142968
2.70915
0.0121676
2.73151
0.0103189
2.75521
0.00878114
2.77992
0.00756968
2.80533
0.00668496
2.83112
0.00611198
2.85702
0.00582321
2.88278
0.00578211
2.90822
0.00594735
2.93316
0.00627577
2.9575
0.00672564
2.98115
0.00725868
3.00407
0.00784145
3.02624
0.00844518
3.04768
0.00904479
3.06841
0.00961656
3.0885
0.0101362
3.10802
0.0105771
3.12708
0.0109085
3.14584
0.0110976
3.16447
0.0111102
3.18317
0.0109135
3.20221
0.0104768
3.22186
0.00977201
3.24241
0.008774
3.26418
0.00746063
3.28752
0.00581348
3.31276
0.00381609
3.3403
0.00145371
3.3705
-0.00128932
3.40378
-0.00443143
3.44056
-0.00799645
3.4813
-0.0120154
3.52651
-0.0165278
3.57672
-0.0215836
3.63256
-0.0272443
3.6947
-0.033586
3.76394
-0.0407016
3.84115
-0.0487014
3.92736
-0.0577155
4.02374
-0.0678948
4.13163
-0.0794137
4.25258
-0.0924701
4.38834
-0.107283
4.54092
-0.124084
4.71253
-0.143109
4.90563
-0.164578
5.12284
-0.188657
5.36683
-0.215415
5.6402
-0.244746
5.94512
-0.27627
6.28302
-0.309215
6.65405
-0.342308
7.05654
-0.373731
7.48663
-0.401275
7.93832
-0.422834
8.40461
-0.437386
8.87993
-0.446347
9.36367
-0.454709
9.86362
-0.470857
10.3974
-0.50454
10.991
-0.564357
11.6756
-0.655178
12.4799
-0.774647
13.4175
-0.907645
14.4672
-1.01921
15.5499
-1.05179
16.5252
-0.943927
17.2505
-0.693999
17.706
-0.424574
17.9236
-0.186912
17.9334
0.0204212
17.7477
0.216067
17.3698
0.408196
16.828
0.572219
16.1994
0.659028
15.5125
0.717318
14.7382
0.80488
13.8236
0.945214
12.7328
1.12141
11.4733
1.29013
10.0814
1.42265
8.61073
1.50149
7.11381
1.52783
5.6287
1.51615
4.17532
1.48459
2.75804
1.44874
1.37038
1.41954
1.4035
7.34156
11.2759
7.32947
7.37819
6.19084
4.60705
5.13156
2.96352
4.32281
2.00327
3.74399
1.42968
3.33955
1.07519
3.05333
0.844723
2.84395
0.68538
2.68578
0.568644
2.56376
0.479025
2.4688
0.407737
2.3951
0.349499
2.33871
0.300962
2.29675
0.259901
2.26703
0.224787
2.24777
0.194539
2.2375
0.168378
2.23495
0.145732
2.23898
0.126169
2.24857
0.109358
2.26276
0.095035
2.28069
0.0829786
2.30153
0.0729924
2.32453
0.064893
2.34899
0.058501
2.37431
0.0536377
2.39993
0.0501264
2.42539
0.0477951
2.45028
0.0464823
2.47427
0.0460429
2.49707
0.0463522
2.51846
0.0473084
2.53824
0.0488288
2.55625
0.0508448
2.57232
0.0532893
2.58632
0.0560916
2.59817
0.0591718
2.6078
0.0624371
2.61519
0.0657822
2.62039
0.0690913
2.62351
0.0722426
2.62471
0.0751135
2.62421
0.0775847
2.62229
0.0795457
2.61928
0.0808978
2.61553
0.0815588
2.61145
0.0814674
2.60745
0.0805861
2.60396
0.0789034
2.60139
0.076435
2.60013
0.0732237
2.60053
0.069339
2.60289
0.0648743
2.60746
0.0599435
2.61443
0.0546774
2.62389
0.0492178
2.63588
0.0437127
2.65037
0.03831
2.66723
0.0331509
2.68629
0.0283649
2.7073
0.024064
2.72998
0.0203374
2.754
0.0172479
2.77904
0.0148267
2.80475
0.0130731
2.83083
0.0119553
2.85698
0.0114159
2.88295
0.0113783
2.90854
0.0117552
2.93361
0.0124563
2.95803
0.0133956
2.98173
0.0144961
3.00467
0.015692
3.02684
0.0169277
3.04825
0.0181541
3.06893
0.019325
3.08894
0.0203919
3.10835
0.0213014
3.12727
0.0219935
3.14585
0.0224031
3.16427
0.0224627
3.18274
0.0221048
3.20151
0.0212651
3.22086
0.0198849
3.24109
0.0179129
3.26253
0.0153058
3.28552
0.012028
3.3104
0.00804963
3.33755
0.00334317
3.36736
-0.00212087
3.40021
-0.00837841
3.43654
-0.0154753
3.47679
-0.0234716
3.52145
-0.0324436
3.57106
-0.0424889
3.62622
-0.0537302
3.68759
-0.0663183
3.75594
-0.0804362
3.83213
-0.0963019
3.91718
-0.114174
4.01222
-0.134353
4.11857
-0.15719
4.23777
-0.183081
4.37154
-0.212468
4.52189
-0.245826
4.69106
-0.283649
4.88155
-0.326404
5.09608
-0.374481
5.3375
-0.428091
5.60867
-0.487121
5.91217
-0.550927
6.24993
-0.618074
6.62263
-0.68605
7.029
-0.751074
7.46507
-0.808227
7.92376
-0.852318
8.39565
-0.87994
8.87156
-0.892795
9.34752
-0.90104
9.82994
-0.923474
10.3375
-0.982092
10.9002
-1.09663
11.5561
-1.28027
12.3469
-1.53374
13.306
-1.83369
14.4346
-2.11265
15.6578
-2.23681
16.7751
-2.02098
17.5199
-1.40018
17.9437
-0.812159
18.1309
-0.339986
18.1291
0.0548865
17.9398
0.438367
17.5338
0.847523
16.9148
1.22488
16.2577
1.34984
15.6001
1.40858
14.8785
1.56016
13.9998
1.85768
12.9015
2.25332
11.6059
2.61927
10.1603
2.90154
8.63707
3.05767
7.10213
3.09545
5.59715
3.05356
4.13947
2.97451
2.72884
2.89153
1.35435
2.82632
2.79111
3.44382
7.83216
4.55833
6.26386
4.54731
4.62018
4.17131
3.35297
3.74922
2.46838
3.3895
1.8708
3.10908
1.46524
2.89398
1.18141
2.72721
0.974289
2.59616
0.81685
2.49247
0.692963
2.41056
0.59273
2.34656
0.509844
2.29765
0.44013
2.26164
0.380736
2.23678
0.329662
2.22161
0.285472
2.21485
0.24712
2.21538
0.213832
2.22217
0.185021
2.23424
0.160235
2.25071
0.139111
2.2707
0.121342
2.29343
0.106652
2.31814
0.0947784
2.34413
0.0854582
2.3708
0.0784249
2.3976
0.0734095
2.42407
0.0701479
2.44984
0.0683908
2.47457
0.0679162
2.49803
0.0685369
2.51998
0.0701034
2.54026
0.0725005
2.55869
0.0756316
2.57512
0.0794057
2.5894
0.0837241
2.60144
0.0884713
2.61114
0.0935095
2.6185
0.0986782
2.62354
0.1038
2.62638
0.108685
2.62718
0.113143
2.62617
0.116991
2.62364
0.120056
2.61994
0.122186
2.61544
0.123255
2.61057
0.123167
2.60577
0.121863
2.60149
0.119322
2.59818
0.115567
2.59624
0.110664
2.59606
0.10472
2.59796
0.0978807
2.6022
0.0903221
2.60897
0.0822474
2.61839
0.0738763
2.63048
0.0654374
2.64521
0.057159
2.66245
0.0492602
2.68199
0.0419424
2.70357
0.0353805
2.72689
0.0297152
2.75158
0.0250437
2.77728
0.0214148
2.80363
0.0188253
2.83029
0.0172225
2.85694
0.0165121
2.88332
0.0165687
2.90925
0.0172502
2.93455
0.0184118
2.95913
0.0199187
2.98293
0.0216537
3.00591
0.0235195
3.02807
0.0254367
3.04942
0.0273373
3.07
0.0291564
3.08985
0.030825
3.10904
0.0322645
3.12768
0.0333851
3.14591
0.0340873
3.16391
0.0342656
3.1819
0.0338141
3.20013
0.0326321
3.21889
0.0306292
3.23849
0.0277271
3.25926
0.0238629
3.28154
0.0189861
3.3057
0.0130564
3.33209
0.00603695
3.3611
-0.00211119
3.39311
-0.0114374
3.42854
-0.0220055
3.46782
-0.0339001
3.5114
-0.0472321
3.55982
-0.0621437
3.61363
-0.0788141
3.67347
-0.0974647
3.74007
-0.118364
3.81426
-0.141835
3.897
-0.168259
3.98938
-0.198086
4.09268
-0.23184
4.20838
-0.27012
4.33818
-0.313599
4.48407
-0.363018
4.6483
-0.419158
4.83347
-0.482804
5.04247
-0.55466
5.27847
-0.635224
5.54487
-0.72458
5.84503
-0.822081
6.18195
-0.925912
6.5576
-1.03252
6.97185
-1.13601
7.42097
-1.22789
7.89614
-1.29782
8.3828
-1.33667
8.86332
-1.34307
9.32508
-1.33219
9.77132
-1.33867
10.223
-1.40217
10.7165
-1.55779
11.3027
-1.8328
12.047
-2.2423
13.027
-2.77428
14.3104
-3.34997
15.8736
-3.7431
17.3959
-3.47948
18.1079
-2.06146
18.4159
-1.07731
18.5258
-0.411892
18.5125
0.103554
18.349
0.639171
17.9112
1.32417
17.0398
2.13642
16.3164
2.11324
15.7517
2.01298
15.1761
2.17531
14.3954
2.6779
13.2674
3.42074
11.8881
4.0375
10.3164
4.51123
8.67485
4.73593
7.06025
4.74554
5.5181
4.63014
4.05649
4.46973
2.66363
4.31743
1.31913
4.20362
4.14365
1.87552
5.95813
2.91465
5.22872
3.28009
4.2679
3.28672
3.38278
3.15164
2.67481
2.98395
2.14094
2.82525
1.74344
2.68686
1.44363
2.56977
1.21219
2.47228
1.02898
2.39224
0.880555
2.32767
0.757899
2.27685
0.654849
2.23826
0.567119
2.21056
0.491667
2.19259
0.426296
2.18326
0.3694
2.18157
0.31979
2.18657
0.276574
2.19738
0.239076
2.21312
0.206769
2.23294
0.179227
2.25601
0.156085
2.28156
0.13701
2.30882
0.121673
2.3371
0.109735
2.36578
0.100841
2.39434
0.0946228
2.42232
0.0907128
2.44936
0.0887644
2.4752
0.08847
2.49959
0.0895793
2.52238
0.0919012
2.54339
0.095296
2.56246
0.0996533
2.57944
0.104871
2.59415
0.110834
2.60647
0.117397
2.61631
0.124377
2.62362
0.131554
2.62843
0.138682
2.63084
0.145496
2.63103
0.151731
2.62924
0.157129
2.62577
0.161452
2.62101
0.16449
2.61535
0.166065
2.60927
0.166043
2.60323
0.164338
2.59774
0.160918
2.59328
0.155813
2.5903
0.149112
2.58922
0.140966
2.5904
0.131575
2.59412
0.121188
2.6006
0.110087
2.60995
0.0985773
2.6222
0.0869777
2.63731
0.0756052
2.65513
0.0647655
2.67543
0.0547413
2.69791
0.0457796
2.72221
0.0380797
2.74795
0.0317798
2.77469
0.0269482
2.80203
0.0235774
2.82958
0.0215874
2.85699
0.020835
2.88401
0.0211315
2.91041
0.0222648
2.93606
0.0240239
2.96086
0.0262168
2.98479
0.028684
3.00783
0.0312999
3.02997
0.0339679
3.05124
0.0366091
3.07167
0.0391475
3.09129
0.0414984
3.11016
0.0435604
3.12838
0.045212
3.14609
0.046315
3.16346
0.046721
3.18072
0.0462798
3.19812
0.0448488
3.21599
0.0423022
3.23462
0.0385343
3.25438
0.0334638
3.27561
0.0270296
3.29868
0.0191866
3.32394
0.00989539
3.35177
-0.000887323
3.38255
-0.0132175
3.41665
-0.027171
3.45448
-0.0428522
3.49649
-0.0604004
3.54315
-0.0799984
3.59498
-0.101876
3.65257
-0.12632
3.7166
-0.153677
3.78784
-0.184368
3.86717
-0.218892
3.95563
-0.257842
4.0544
-0.301911
4.1649
-0.351901
4.28876
-0.408729
4.42793
-0.473419
4.58466
-0.547088
4.76162
-0.630912
4.9619
-0.726041
5.18912
-0.833463
5.44737
-0.95377
5.74119
-1.08676
6.07535
-1.23079
6.45411
-1.38186
6.87996
-1.53223
7.35105
-1.66905
7.85729
-1.77371
8.37639
-1.82478
8.8742
-1.80907
9.3186
-1.74392
9.70782
-1.69439
10.0674
-1.72722
10.4415
-1.89601
10.8932
-2.2462
11.515
-2.82192
12.4513
-3.66125
13.9173
-4.75334
16.1372
-5.87468
18.8139
-6.05712
19.0921
-2.28701
19.0813
-1.02313
19.0412
-0.332786
19.0482
0.134433
19.034
0.694932
18.7235
1.68067
17.0166
3.89362
16.2162
2.96241
15.914
2.36207
15.6786
2.45735
15.1382
3.26578
13.8842
4.72307
12.3619
5.60735
10.5411
6.37748
8.68446
6.63515
6.94485
6.52482
5.35768
6.25452
3.90419
5.95859
2.54982
5.70589
1.25916
5.52762
5.43641
1.14611
4.82508
1.95382
4.4434
2.39497
3.8685
2.57876
3.26959
2.61777
2.73486
2.58644
2.28966
2.52545
1.92855
2.45541
1.63662
2.38656
1.39883
2.32385
1.20279
2.26958
1.03902
2.22463
0.900483
2.18912
0.781968
2.1628
0.679637
2.14519
0.590638
2.1357
0.512841
2.13365
0.444648
2.13835
0.384852
2.14908
0.332537
2.16507
0.287005
2.18558
0.247707
2.2098
0.2142
2.23694
0.186096
2.26622
0.163031
2.29688
0.144629
2.3282
0.130482
2.35957
0.120143
2.39043
0.113133
2.42037
0.108962
2.44907
0.107166
2.4763
0.107339
2.50192
0.109164
2.52577
0.112416
2.54775
0.116945
2.56768
0.122653
2.5854
0.129449
2.60071
0.137217
2.61345
0.14579
2.62349
0.154942
2.63075
0.164384
2.63524
0.173789
2.63707
0.182804
2.63642
0.191076
2.63356
0.198266
2.62881
0.204063
2.62258
0.208188
2.61533
0.210408
2.60756
0.210541
2.59981
0.208469
2.59263
0.204144
2.58658
0.1976
2.58215
0.188955
2.57983
0.178405
2.58001
0.166217
2.58302
0.152721
2.58909
0.13829
2.59835
0.123327
2.61083
0.108251
2.62647
0.093479
2.64511
0.0794171
2.66647
0.0664409
2.69021
0.0548827
2.71591
0.0450118
2.74312
0.0370175
2.77132
0.0309924
2.80004
0.0269236
2.82883
0.0246931
2.85729
0.0240908
2.88514
0.0248418
2.91217
0.026641
2.93825
0.0291907
2.96333
0.032231
2.98741
0.035557
3.01049
0.0390214
3.03261
0.0425221
3.05378
0.0459823
3.07402
0.0493273
3.09335
0.0524649
3.11181
0.0552729
3.12949
0.0575967
3.1465
0.0592527
3.16302
0.0600398
3.17928
0.0597537
3.19558
0.058202
3.21222
0.0552173
3.22955
0.0506659
3.24795
0.0444509
3.26777
0.0365073
3.28938
0.026792
3.31316
0.0152716
3.33944
0.00190899
3.36859
-0.0133485
3.40097
-0.0305815
3.43694
-0.049908
3.47689
-0.0714909
3.52127
-0.095545
3.57053
-0.122345
3.62521
-0.152232
3.68591
-0.185627
3.75331
-0.223035
3.82822
-0.265065
3.91156
-0.312442
4.00441
-0.366021
4.10807
-0.426805
4.22407
-0.495952
4.35426
-0.57479
4.50084
-0.664812
4.66649
-0.767657
4.85448
-0.885057
5.06881
-1.01873
5.31438
-1.17017
5.59716
-1.34024
5.92428
-1.52845
6.30373
-1.73161
6.74315
-1.94159
7.24638
-2.14165
7.80622
-2.30191
8.3921
-2.37733
8.93934
-2.32064
9.36814
-2.13543
9.675
-1.96296
9.89858
-1.91148
10.0913
-2.04779
10.3175
-2.42845
10.6757
-3.13126
11.3592
-4.28712
12.7959
-6.11615
15.9548
-8.91994
22.584
-12.5895
20.356
-22.1859
19.7716
-7.27162
19.5084
-0.353488
19.6087
0.830879
20.0197
3.54367
20.9364
8.6946
16.0854
8.80625
15.6158
3.48589
16.0093
2.01834
16.4871
2.02938
16.5955
3.21043
14.7685
6.60804
13.132
7.30172
10.7988
8.76609
8.57413
8.91018
6.67455
8.46939
5.06175
7.9079
3.65149
7.40624
2.37154
7.0211
1.16795
6.76516
6.63818
0.764429
4.10441
1.37892
3.88704
1.79606
3.53056
2.04403
3.12277
2.17257
2.72324
2.22533
2.3608
2.23352
2.0442
2.21762
1.77216
2.19052
1.53949
2.16009
1.34013
2.13104
1.16847
2.10611
1.01973
2.08679
0.89006
2.0738
0.776385
2.0674
0.676311
2.0675
0.587972
2.07385
0.509923
2.08604
0.441051
2.10354
0.380502
2.12578
0.327619
2.15207
0.281891
2.18169
0.242904
2.21387
0.210291
2.24782
0.183687
2.28273
0.162695
2.31786
0.146847
2.35256
0.135599
2.38626
0.128336
2.41857
0.124417
2.44924
0.123222
2.47813
0.124226
2.50517
0.127035
2.5303
0.1314
2.55346
0.137197
2.57448
0.144371
2.59317
0.15288
2.60929
0.162636
2.62261
0.173462
2.63293
0.185082
2.64015
0.197128
2.64426
0.209169
2.64534
0.220744
2.64361
0.231398
2.63936
0.240698
2.63294
0.248249
2.6248
0.253701
2.61546
0.256752
2.60549
0.257164
2.59549
0.254775
2.58609
0.249515
2.57793
0.241419
2.5716
0.230634
2.56764
0.217413
2.56652
0.202103
2.56859
0.185127
2.57413
0.166965
2.58327
0.148133
2.59606
0.129163
2.61241
0.11059
2.63213
0.0929311
2.65491
0.0766735
2.68034
0.0622513
2.70792
0.0500226
2.73709
0.0402431
2.76725
0.0330399
2.79781
0.0283942
2.82822
0.0261362
2.85804
0.0259627
2.88694
0.0274764
2.91472
0.0302419
2.94129
0.0338446
2.96666
0.0379388
2.99087
0.0422735
3.01399
0.046691
3.03607
0.0511049
3.05712
0.0554629
3.07715
0.0597101
3.09616
0.0637588
3.11414
0.0674704
3.13114
0.0706521
3.14728
0.0730647
3.16273
0.0744401
3.17773
0.074504
3.19259
0.0730007
3.20767
0.0697129
3.22334
0.0644769
3.24
0.0571843
3.25805
0.0477743
3.27786
0.03622
3.2998
0.0225079
3.32418
0.00662012
3.35136
-0.011483
3.38164
-0.0318784
3.41535
-0.0546882
3.45284
-0.0800911
3.49447
-0.108327
3.54065
-0.139707
3.59182
-0.174619
3.6485
-0.213542
3.71128
-0.257057
3.78084
-0.305868
3.85798
-0.360816
3.94363
-0.422904
4.03892
-0.493319
4.14524
-0.573457
4.26424
-0.664948
4.39799
-0.769678
4.54909
-0.889802
4.72081
-1.02775
4.91737
-1.18616
5.14431
-1.36785
5.40895
-1.57546
5.72112
-1.81094
6.09376
-2.07421
6.54308
-2.36024
7.08612
-2.65284
7.73081
-2.91235
8.44879
-3.05633
9.12455
-2.9503
9.54061
-2.50458
9.72648
-2.1032
9.76227
-1.90235
9.71068
-1.95067
9.61464
-2.28472
9.5198
-2.98467
9.5302
-4.23905
9.99216
-6.50904
12.2852
-11.1104
12.9877
-14.9751
35.2702
-29.1628
26.6898
-22.8866
20.6928
-4.05886
22.3214
10.4609
25.1706
12.4916
21.0481
5.93228
10.765
1.23955
14.1483
1.8069
16.0203
2.28547
17.6681
4.76039
19.9931
10.2944
15.4622
11.1983
14.5964
8.22868
10.9428
12.4824
8.13335
11.777
6.11306
10.5394
4.56009
9.50436
3.26636
8.73911
2.1156
8.20816
1.04097
7.8743
7.7132
0.54706
3.63893
1.02244
3.50528
1.38827
3.27209
1.6445
2.98479
1.81013
2.68126
1.90873
2.38594
1.96148
2.11167
1.98495
1.86348
1.99116
1.64189
1.98842
1.44523
1.9823
1.27097
1.97644
1.11643
1.97311
0.979142
1.97373
0.856934
1.97906
0.747999
1.98945
0.650852
2.00498
0.564302
2.02549
0.487411
2.05066
0.419453
2.08005
0.359876
2.11308
0.308258
2.14908
0.264265
2.18727
0.227597
2.22683
0.197938
2.26688
0.174895
2.30662
0.15796
2.34529
0.146477
2.38234
0.139665
2.41738
0.136667
2.45025
0.136655
2.48094
0.138935
2.50953
0.143023
2.5361
0.148669
2.56063
0.155818
2.58299
0.164526
2.60292
0.174859
2.62011
0.186795
2.63423
0.200165
2.64498
0.214634
2.65219
0.229726
2.65583
0.244872
2.656
0.259473
2.65291
0.272947
2.64691
0.284756
2.63839
0.294419
2.62786
0.301503
2.61588
0.305631
2.6031
0.30649
2.59023
0.303858
2.578
0.297629
2.56715
0.287837
2.55838
0.274662
2.55233
0.258426
2.54954
0.239573
2.55043
0.218641
2.55529
0.196236
2.5643
0.173004
2.57749
0.14961
2.59475
0.126718
2.61587
0.104979
2.64048
0.0850084
2.66811
0.0673668
2.69814
0.0525272
2.72989
0.0408375
2.76261
0.0324785
2.79555
0.0274286
2.82805
0.0254494
2.85956
0.026105
2.8897
0.0288202
2.91832
0.0329696
2.94538
0.0379737
2.97099
0.0433761
2.99529
0.0488805
3.01841
0.0543427
3.04043
0.0597264
3.06137
0.0650411
3.0812
0.0702811
3.09987
0.0753809
3.11732
0.0801907
3.13356
0.0844722
3.14866
0.0879133
3.1628
0.0901549
3.17623
0.0908275
3.18931
0.0895906
3.20243
0.0861655
3.21605
0.0803548
3.23059
0.0720462
3.2465
0.0611986
3.26415
0.0478187
3.28391
0.0319331
3.30608
0.01356
3.33096
-0.00731309
3.35883
-0.0307473
3.38995
-0.0568627
3.4246
-0.0858449
3.46309
-0.117953
3.50573
-0.153524
3.5529
-0.192982
3.60499
-0.236851
3.66247
-0.285772
3.7259
-0.340523
3.79589
-0.40204
3.87321
-0.471449
3.95879
-0.550098
4.05374
-0.639595
4.15951
-0.741851
4.27787
-0.859129
4.41115
-0.994101
4.56239
-1.14992
4.73569
-1.33027
4.9367
-1.53951
5.17347
-1.78266
5.45785
-2.0654
5.80773
-2.3936
6.25049
-2.77141
6.82662
-3.19503
7.58683
-3.63319
8.55482
-3.97216
9.57027
-3.8915
9.94198
-2.81501
9.92732
-2.0363
9.71396
-1.64101
9.37663
-1.5666
8.91468
-1.77537
8.26542
-2.28606
7.26021
-3.18177
5.39084
-4.58509
8.42047
-6.44677
-1.20002
-10.6158
41.5464
-4.71573
45.5175
-8.51873
35.2125
2.27475
24.3522
9.57756
18.6113
14.1058
16.3553
18.1639
11.3324
19.7742
14.6268
22.3143
18.4953
22.1172
23.2021
13.735
20.897
9.5114
12.4926
8.80916
18.85
22.0483
10.2375
21.1534
6.89578
15.1759
5.07801
12.4074
3.79484
10.8317
2.7354
9.83841
1.78174
9.19873
0.879869
8.81114
8.62737
0.413411
3.33309
0.789244
3.24358
1.10098
3.08033
1.34097
2.86784
1.51481
2.63012
1.63446
2.38591
1.71329
2.1477
1.76337
1.92264
1.7945
1.71416
1.81416
1.52326
1.82777
1.34965
1.83914
1.19233
1.85091
1.05005
1.86479
0.921522
1.88191
0.805548
1.9029
0.701069
1.92809
0.607197
1.95753
0.523215
1.99108
0.448573
2.02843
0.38287
2.06909
0.325824
2.11241
0.277235
2.15761
0.23693
2.20378
0.204692
2.24995
0.18019
2.29513
0.162894
2.33848
0.15203
2.37934
0.146587
2.41737
0.145403
2.45253
0.147331
2.48503
0.151428
2.51518
0.157095
2.54325
0.164116
2.56934
0.172593
2.59332
0.182796
2.61486
0.194997
2.63348
0.209301
2.6487
0.225566
2.66007
0.243374
2.66734
0.26209
2.67043
0.280952
2.66947
0.29917
2.66472
0.316009
2.65657
0.330819
2.64547
0.343032
2.63198
0.352134
2.61674
0.357656
2.60047
0.35919
2.584
0.356424
2.5682
0.349197
2.55397
0.337531
2.54215
0.321648
2.53348
0.301957
2.52861
0.279025
2.52802
0.253534
2.53206
0.226243
2.54091
0.19795
2.55459
0.16947
2.57301
0.141614
2.5959
0.115181
2.62284
0.0909402
2.65327
0.0696087
2.68645
0.0518133
2.72153
0.0380356
2.75756
0.0285448
2.79357
0.0233318
2.82871
0.0220706
2.86227
0.0241341
2.89385
0.0286803
2.92332
0.0347969
2.95079
0.0416623
2.9765
0.048673
3.00075
0.0554964
3.02379
0.0620453
3.04574
0.0683944
3.06661
0.0746743
3.0863
0.0809747
3.10468
0.0872781
3.1216
0.0934273
3.137
0.0991249
3.1509
0.103957
3.16347
0.107437
3.17499
0.109061
3.18588
0.108372
3.19662
0.105009
3.20774
0.0987387
3.21974
0.0894563
3.23312
0.0771646
3.24827
0.0619334
3.26553
0.0438563
3.28521
0.0230111
3.30753
-0.000571126
3.33271
-0.0269249
3.36097
-0.0561599
3.3925
-0.0884643
3.42752
-0.124108
3.46628
-0.163445
3.50903
-0.206925
3.55606
-0.255101
3.60772
-0.308653
3.66438
-0.368407
3.72648
-0.435368
3.79456
-0.510751
3.86929
-0.596027
3.95149
-0.692972
4.04223
-0.803727
4.14289
-0.930876
4.25533
-1.07754
4.38203
-1.24751
4.52645
-1.44545
4.69355
-1.67717
4.89073
-1.95011
5.12965
-2.27412
5.42991
-2.66277
5.82687
-3.13544
6.38846
-3.71942
7.24785
-4.44455
8.63549
-5.28259
10.6468
-5.76201
10.7207
-2.81953
10.3226
-1.58614
9.78836
-1.06106
9.16787
-0.902643
8.40398
-0.96837
7.36971
-1.20829
5.85689
-1.62501
3.52916
-2.21363
4.25149
-3.23506
4.7
-4.90905
37.7434
-2.71357
56.311
7.83579
42.5153
16.0473
28.8804
23.1977
22.6693
32.4401
17.9656
38.9681
13.8725
42.1116
14.4297
42.6708
10.1131
38.5956
18.9785
33.1239
20.1948
31.9308
25.7318
40.4787
17.9551
37.2264
4.25994
18.5055
4.12733
15.3513
3.50228
13.0756
2.80155
11.574
2.09572
10.5834
1.39415
9.93728
0.696095
9.54442
9.35797
0.323893
3.12693
0.625996
3.06164
0.888487
2.93917
1.10325
2.77363
1.2706
2.5806
1.39624
2.37399
1.48823
2.16449
1.55488
1.9595
1.60361
1.76362
1.64055
1.5794
1.67045
1.40799
1.69686
1.24964
1.72238
1.1041
1.74882
0.970831
1.77743
0.849196
1.80903
0.738546
1.84411
0.638299
1.88289
0.547974
1.92538
0.46722
1.97138
0.395819
2.0205
0.333673
2.07211
0.280775
2.12537
0.237147
2.17928
0.202759
2.23265
0.17741
2.28427
0.160606
2.33304
0.151449
2.37816
0.148612
2.41929
0.150462
2.45662
0.155342
2.49069
0.161916
2.5222
0.169426
2.55173
0.177759
2.57954
0.187322
2.60552
0.19878
2.62916
0.212761
2.64975
0.229599
2.6665
0.24919
2.67878
0.270987
2.6862
0.294105
2.68865
0.317483
2.68631
0.340065
2.67953
0.360928
2.66878
0.379318
2.65458
0.394602
2.63751
0.406198
2.61827
0.413531
2.5977
0.416055
2.57677
0.413323
2.55654
0.405079
2.53809
0.39132
2.52246
0.372321
2.51055
0.348612
2.50312
0.320923
2.50073
0.290121
2.50377
0.25715
2.51243
0.222985
2.52674
0.188608
2.54658
0.154993
2.57166
0.1231
2.60151
0.0938757
2.63547
0.0682305
2.67267
0.0470004
2.71204
0.0308687
2.75235
0.0202581
2.79231
0.0152109
2.83077
0.0152986
2.86682
0.0196165
2.89997
0.0269103
2.93019
0.035819
2.9578
0.045154
2.98332
0.0541116
3.0073
0.0623478
3.03014
0.0699141
3.05202
0.0771021
3.07291
0.0842607
3.09261
0.0916426
3.11083
0.0993099
3.1273
0.107099
3.14183
0.114631
3.15438
0.121345
3.16509
0.12657
3.1743
0.129608
3.18252
0.129831
3.19035
0.126766
3.19845
0.120141
3.20745
0.109884
3.21789
0.0960799
3.23019
0.0789047
3.24469
0.0585586
3.26163
0.0352088
3.28118
0.00894993
3.30348
-0.0202149
3.32866
-0.0523815
3.35685
-0.0877381
3.38818
-0.126562
3.4228
-0.169218
3.46085
-0.216165
3.50251
-0.267971
3.54797
-0.325328
3.59742
-0.389084
3.6511
-0.460275
3.70929
-0.540163
3.77234
-0.630291
3.84073
-0.732541
3.91508
-0.849211
3.99623
-0.983106
4.08536
-1.13766
4.18409
-1.31713
4.29473
-1.52681
4.42061
-1.77353
4.56672
-2.06632
4.741
-2.41784
4.95725
-2.84715
5.24289
-3.38634
5.66333
-4.0983
6.40981
-5.13221
8.15607
-6.92122
13.5892
-10.9769
11.9541
-12.1856
10.8477
-5.96315
9.94678
-2.11947
9.10214
-0.292798
8.16407
0.074944
6.95299
0.481037
5.26828
1.09893
2.50772
0.583354
2.57751
-0.874501
6.89548
-1.77054
48.2928
18.9288
64.5225
34.0534
49.6658
30.8937
38.1228
34.7403
29.1972
41.3486
21.1091
47.0205
14.4317
48.7171
10.3545
46.625
4.64141
44.1663
17.7854
48.0897
28.7426
48.9576
22.4794
43.1552
-0.765798
23.148
1.10575
17.3843
1.8516
14.6445
2.0007
12.9661
1.81102
11.803
1.44956
10.9832
1.00129
10.4223
0.50965
10.0714
9.90233
0.258604
2.98599
0.503525
2.9347
0.72294
2.83683
0.910224
2.70118
1.06399
2.5383
1.18675
2.35851
1.28324
2.17066
1.359
1.98164
1.4194
1.7964
1.46914
1.61827
1.5121
1.44932
1.55132
1.29067
1.58911
1.1428
1.62719
1.00578
1.66678
0.87943
1.70878
0.763448
1.75378
0.657523
1.80213
0.561396
1.85398
0.474912
1.90924
0.398053
1.9676
0.330942
2.02848
0.273825
2.09099
0.227009
2.15393
0.190764
2.21585
0.165153
2.27511
0.149825
2.3302
0.143787
2.38001
0.145275
2.42417
0.151898
2.4632
0.161139
2.4982
0.171003
2.53053
0.180514
2.56129
0.189793
2.591
0.199807
2.6195
0.211919
2.646
0.22737
2.66934
0.246864
2.6883
0.270345
2.7019
0.297036
2.70958
0.32563
2.71123
0.354594
2.70717
0.382476
2.69792
0.40813
2.68407
0.430742
2.66617
0.449689
2.64484
0.464361
2.62079
0.474057
2.59497
0.478024
2.56853
0.475589
2.54278
0.466334
2.51909
0.45021
2.49875
0.427571
2.48286
0.399119
2.47232
0.365811
2.46776
0.328758
2.4696
0.289133
2.47805
0.248118
2.49312
0.206876
2.51469
0.166543
2.54244
0.128249
2.57587
0.0931317
2.61424
0.0623406
2.65654
0.0369957
2.70143
0.0180901
2.7473
0.00631959
2.7924
0.00187061
2.83509
0.00421634
2.87411
0.0120477
2.90888
0.0234548
2.93952
0.0363493
2.96675
0.0489639
2.99156
0.0602193
3.01487
0.0698229
3.03733
0.0781203
3.05918
0.085803
3.08029
0.093592
3.10027
0.101997
3.11862
0.111196
3.13483
0.121011
3.14854
0.13094
3.15961
0.140213
3.16813
0.147887
3.17453
0.152969
3.17945
0.15458
3.18372
0.152088
3.1882
0.145184
3.19365
0.13387
3.20071
0.118378
3.20984
0.0990584
3.22134
0.0762774
3.23537
0.0503297
3.25201
0.0213931
3.27131
-0.0104874
3.29331
-0.0453977
3.31803
-0.0835296
3.34553
-0.125169
3.37585
-0.170685
3.40904
-0.220536
3.44516
-0.27528
3.48421
-0.335598
3.52623
-0.402324
3.57121
-0.476483
3.61916
-0.559335
3.67009
-0.652433
3.72406
-0.757694
3.78118
-0.877474
3.84167
-1.01468
3.90589
-1.17288
3.97441
-1.35651
4.04802
-1.5711
4.12782
-1.82371
4.2152
-2.1236
4.31169
-2.4833
4.41806
-2.92062
4.53093
-3.46221
4.62942
-4.1504
4.62081
-5.05529
4.10037
-6.28283
12.3806
-7.86183
18.1765
-15.2061
14.6914
-15.2193
11.7735
-8.86607
9.46989
-1.85095
8.57016
3.20613
7.57088
3.86558
4.75271
1.3918
1.04987
0.103569
1.68147
0.766728
27.5948
1.23094
63.4174
26.1305
61.3628
36.0835
53.5123
38.7436
44.7312
43.5213
34.8692
51.2103
22.8057
59.0834
12.3397
59.1817
7.89581
51.0664
8.5648
43.4946
18.6533
37.9163
22.9402
29.6471
2.47227
13.7311
-6.52957
8.2183
-1.63406
12.5279
0.17321
12.8754
0.837647
12.3397
0.991195
11.6876
0.8887
11.1232
0.650351
10.6972
0.340591
10.4165
10.2778
0.20731
2.89161
0.405659
2.84868
0.587287
2.76593
0.747343
2.64928
0.884199
2.50625
0.998896
2.34477
1.09422
2.17216
1.17376
1.99468
1.24127
1.8173
1.30019
1.64372
1.35345
1.47657
1.40345
1.31755
1.45209
1.16765
1.50083
1.02737
1.5508
0.896869
1.60286
0.776103
1.65765
0.664964
1.71565
0.563365
1.77712
0.471326
1.84213
0.389022
1.91048
0.316824
1.98166
0.25529
2.05474
0.205122
2.12832
0.167053
2.20052
0.141628
2.26908
0.128868
2.33169
0.127809
2.38663
0.136111
2.43342
0.150104
2.47306
0.165763
2.50771
0.17995
2.53981
0.191384
2.5713
0.200678
2.60311
0.209815
2.63495
0.221363
2.66549
0.237605
2.69282
0.25983
2.71499
0.288004
2.7305
0.320909
2.73854
0.356532
2.73912
0.392552
2.73283
0.426895
2.72054
0.458165
2.70301
0.485633
2.68084
0.508864
2.65454
0.527318
2.62476
0.54014
2.59254
0.546227
2.55927
0.544513
2.52665
0.534299
2.49645
0.515463
2.47029
0.488486
2.44955
0.454338
2.43526
0.414308
2.42814
0.369832
2.42859
0.322376
2.43681
0.273355
2.45279
0.224112
2.47639
0.175935
2.50732
0.130104
2.54508
0.0879492
2.5889
0.0508947
2.63764
0.0204444
2.68966
-0.0019413
2.74285
-0.0150635
2.79475
-0.0183909
2.84292
-0.0124798
2.88552
0.000784919
2.92177
0.0184048
2.95214
0.0370635
2.97801
0.0540475
3.00116
0.0679036
3.02317
0.0785381
3.04501
0.0868837
3.06697
0.0943488
3.0887
0.102267
3.10947
0.111526
3.12843
0.122442
3.14476
0.134793
3.15782
0.147896
3.16728
0.16068
3.17321
0.171799
3.17614
0.179813
3.17696
0.183448
3.17682
0.181841
3.17688
0.174661
3.17816
0.162061
3.18139
0.144531
3.18706
0.122707
3.19539
0.0971975
3.20643
0.0684753
3.22013
0.0368162
3.2364
0.00229917
3.25517
-0.0351622
3.27639
-0.0757839
3.30001
-0.119869
3.326
-0.16779
3.3543
-0.219988
3.38484
-0.276991
3.41749
-0.339438
3.45207
-0.408112
3.48836
-0.483981
3.52606
-0.568247
3.56483
-0.662406
3.60428
-0.768321
3.64398
-0.888309
3.68347
-1.02524
3.72227
-1.18265
3.75981
-1.36488
3.7954
-1.57729
3.82793
-1.82649
3.8555
-2.12077
3.87437
-2.47054
3.87647
-2.88857
3.84274
-3.38888
3.72453
-3.98069
3.39327
-4.64716
2.52136
-5.28858
5.03629
-5.6493
18.1634
-8.67051
21.0446
-6.45875
18.7886
-0.137463
14.527
0.612196
9.22961
3.69123
5.0971
7.43486
3.46448
12.9154
1.71303
19.4954
2.14568
29.8811
52.4944
49.6114
73.3703
55.7294
64.023
45.4294
58.29
44.4765
52.4202
49.3911
42.7423
60.8882
22.904
78.922
4.22437
77.8617
0.323963
54.9671
2.98653
40.8323
10.3842
30.5176
7.02416
20.6746
-3.04051
11.4855
-2.22002
10.4505
-1.28651
11.6333
-0.362536
11.99
0.185568
11.8296
0.42686
11.484
0.462672
11.1246
0.369663
10.8266
0.201863
10.6197
10.5147
0.164384
2.83387
0.322906
2.7959
0.470632
2.7222
0.604322
2.61711
0.722714
2.48633
0.826289
2.33622
0.916735
2.17309
0.996376
2.00269
1.0677
1.82993
1.13303
1.65874
1.19442
1.49209
1.25355
1.33205
1.31181
1.17995
1.37033
1.03654
1.43004
0.902166
1.49172
0.77694
1.55606
0.660857
1.62361
0.553934
1.69482
0.456306
1.76993
0.36832
1.84895
0.290593
1.9315
0.22405
2.01667
0.169906
2.1029
0.12957
2.18776
0.104417
2.26802
0.0952985
2.33999
0.101663
2.40062
0.120537
2.44907
0.146
2.48725
0.171279
2.51915
0.191121
2.54911
0.203912
2.58044
0.211273
2.61466
0.216998
2.65119
0.225725
2.68772
0.241494
2.72099
0.26651
2.7479
0.300613
2.76612
0.341768
2.77456
0.386761
2.77346
0.431929
2.7641
0.474144
2.748
0.511778
2.72624
0.544546
2.6993
0.572611
2.66736
0.595713
2.63085
0.61277
2.59082
0.62205
2.54906
0.621761
2.50782
0.610715
2.46947
0.588692
2.43615
0.556412
2.40952
0.515287
2.39079
0.467099
2.38068
0.413742
2.37957
0.357043
2.38756
0.298676
2.40461
0.240148
2.43056
0.182849
2.46516
0.128153
2.50802
0.0775402
2.55845
0.0327199
2.61525
-0.0043183
2.67654