/*--------------------------------*- C++ -*----------------------------------*\
| =========                 |                                                 |
| \\      /  F ield         | OpenFOAM: The Open Source CFD Toolbox           |
|  \\    /   O peration     | Version:  2.1.0                                 |
|   \\  /    A nd           | Web:      www.OpenFOAM.org                      |
|    \\/     M anipulation  |                                                 |
\*---------------------------------------------------------------------------*/
FoamFile
{
    version     2.0;
    format      ascii;
    class       volScalarField;
    location    "44165";
    object      po;
}
// * * * * * * * * * * * * * * * * * * * * * * * * * * * * * * * * * * * * * //

dimensions      [1 -1 -2 0 0 0 0];

internalField   nonuniform List<scalar> 
15000
(
6270.48
6251.89
6240.66
6232.9
6227.04
6222.34
6218.38
6214.9
6211.76
6208.86
6206.12
6203.52
6201.02
6198.6
6196.24
6193.93
6191.65
6189.39
6187.14
6184.89
6182.64
6180.39
6178.12
6175.83
6173.53
6171.2
6168.85
6166.47
6164.07
6161.65
6159.2
6156.72
6154.22
6151.71
6149.17
6146.61
6144.04
6141.46
6138.86
6136.26
6133.64
6131.02
6128.4
6125.78
6123.16
6120.53
6117.91
6115.3
6112.69
6110.08
6107.47
6104.87
6102.27
6099.67
6097.06
6094.45
6091.83
6089.21
6086.57
6083.92
6081.25
6078.56
6075.85
6073.12
6070.36
6067.58
6064.78
6061.94
6059.09
6056.21
6053.3
6050.36
6047.41
6044.43
6041.42
6038.39
6035.35
6032.28
6029.19
6026.08
6022.96
6019.81
6016.64
6013.46
6010.26
6007.04
6003.8
6000.53
5997.24
5993.93
5990.59
5987.22
5983.82
5980.38
5976.89
5973.37
5969.79
5966.16
5962.46
5958.7
5954.86
5950.93
5946.91
5942.78
5938.52
5934.14
5929.59
5924.88
5919.98
5914.85
5909.49
5903.85
5897.9
5891.62
5884.96
5877.91
5870.42
5862.48
5854.08
5845.2
5835.83
5825.97
5815.57
5804.58
5792.91
5780.43
5767.01
5752.54
5736.99
5720.47
5703.22
5685.51
5667.59
5649.65
5631.91
5614.54
5597.71
5581.51
5566
5551.26
5537.43
5524.7
5513.23
5503.15
5494.54
5487.42
5481.79
5477.62
5474.86
5473.49
6251.86
6244.52
6237.19
6231
6225.87
6221.55
6217.8
6214.46
6211.41
6208.56
6205.88
6203.31
6200.85
6198.45
6196.11
6193.82
6191.55
6189.3
6187.06
6184.83
6182.59
6180.34
6178.08
6175.8
6173.5
6171.17
6168.82
6166.45
6164.05
6161.62
6159.17
6156.7
6154.2
6151.68
6149.14
6146.59
6144.02
6141.43
6138.83
6136.22
6133.61
6130.99
6128.36
6125.74
6123.12
6120.49
6117.87
6115.26
6112.65
6110.04
6107.44
6104.83
6102.23
6099.63
6097.03
6094.42
6091.81
6089.18
6086.55
6083.9
6081.23
6078.55
6075.84
6073.11
6070.35
6067.57
6064.77
6061.94
6059.08
6056.2
6053.29
6050.36
6047.4
6044.42
6041.41
6038.39
6035.34
6032.27
6029.18
6026.07
6022.94
6019.8
6016.63
6013.45
6010.25
6007.03
6003.79
6000.53
5997.24
5993.93
5990.59
5987.22
5983.82
5980.39
5976.91
5973.39
5969.82
5966.19
5962.5
5958.75
5954.92
5951
5946.99
5942.87
5938.63
5934.26
5929.74
5925.05
5920.16
5915.07
5909.73
5904.12
5898.21
5891.96
5885.34
5878.31
5870.84
5862.92
5854.52
5845.65
5836.31
5826.48
5816.14
5805.24
5793.68
5781.33
5768.03
5753.59
5737.94
5721.16
5703.64
5685.7
5667.57
5649.44
5631.5
5613.96
5597.05
5580.79
5565.19
5550.31
5536.31
5523.41
5511.81
5501.65
5493.01
5485.91
5480.31
5476.17
5473.44
5472.09
6240.59
6237.14
6232.58
6228.04
6223.86
6220.12
6216.73
6213.62
6210.72
6208
6205.4
6202.91
6200.5
6198.15
6195.85
6193.59
6191.35
6189.13
6186.92
6184.7
6182.48
6180.25
6178
6175.72
6173.43
6171.11
6168.77
6166.4
6164
6161.58
6159.13
6156.65
6154.15
6151.63
6149.09
6146.53
6143.96
6141.37
6138.77
6136.16
6133.54
6130.92
6128.29
6125.66
6123.04
6120.41
6117.79
6115.18
6112.57
6109.96
6107.36
6104.76
6102.16
6099.57
6096.97
6094.37
6091.76
6089.14
6086.51
6083.87
6081.2
6078.52
6075.82
6073.09
6070.34
6067.56
6064.76
6061.93
6059.07
6056.19
6053.28
6050.34
6047.38
6044.4
6041.4
6038.37
6035.32
6032.25
6029.16
6026.05
6022.92
6019.78
6016.61
6013.43
6010.23
6007.01
6003.77
6000.51
5997.23
5993.93
5990.59
5987.23
5983.84
5980.41
5976.94
5973.43
5969.87
5966.26
5962.58
5958.84
5955.03
5951.13
5947.14
5943.05
5938.84
5934.5
5930.02
5925.37
5920.54
5915.5
5910.22
5904.67
5898.83
5892.65
5886.09
5879.12
5871.7
5863.8
5855.42
5846.55
5837.23
5827.46
5817.23
5806.52
5795.22
5783.17
5770.14
5755.83
5739.96
5722.56
5704.45
5686.04
5667.51
5649
5630.65
5612.74
5595.7
5579.38
5563.63
5548.45
5534.06
5520.79
5508.9
5498.59
5489.91
5482.85
5477.33
5473.28
5470.61
5469.3
6232.75
6230.88
6227.96
6224.68
6221.4
6218.24
6215.26
6212.44
6209.75
6207.18
6204.71
6202.31
6199.99
6197.71
6195.47
6193.26
6191.07
6188.89
6186.7
6184.52
6182.32
6180.11
6177.87
6175.62
6173.34
6171.03
6168.69
6166.32
6163.93
6161.51
6159.06
6156.58
6154.08
6151.56
6149.02
6146.46
6143.88
6141.28
6138.68
6136.06
6133.44
6130.81
6128.18
6125.55
6122.92
6120.29
6117.67
6115.05
6112.44
6109.84
6107.24
6104.65
6102.06
6099.47
6096.88
6094.29
6091.69
6089.08
6086.45
6083.82
6081.16
6078.49
6075.79
6073.07
6070.32
6067.54
6064.74
6061.91
6059.05
6056.17
6053.26
6050.32
6047.36
6044.38
6041.37
6038.34
6035.29
6032.22
6029.13
6026.02
6022.89
6019.74
6016.58
6013.4
6010.2
6006.98
6003.75
6000.49
5997.22
5993.92
5990.6
5987.24
5983.86
5980.44
5976.99
5973.49
5969.95
5966.36
5962.7
5958.99
5955.2
5951.33
5947.38
5943.32
5939.16
5934.87
5930.44
5925.86
5921.09
5916.13
5910.94
5905.5
5899.75
5893.68
5887.22
5880.34
5872.99
5865.14
5856.76
5847.89
5838.57
5828.86
5818.79
5808.35
5797.46
5785.94
5773.49
5759.57
5743.44
5724.62
5705.53
5686.45
5667.41
5648.36
5629.33
5610.6
5593.59
5577.37
5561.46
5545.78
5530.64
5516.75
5504.39
5493.85
5485.17
5478.22
5472.86
5468.96
5466.41
5465.15
6226.8
6225.65
6223.7
6221.3
6218.72
6216.1
6213.52
6210.99
6208.54
6206.15
6203.83
6201.56
6199.33
6197.14
6194.98
6192.83
6190.7
6188.57
6186.43
6184.28
6182.11
6179.93
6177.72
6175.48
6173.21
6170.92
6168.59
6166.23
6163.84
6161.42
6158.97
6156.49
6153.99
6151.47
6148.92
6146.35
6143.77
6141.16
6138.55
6135.93
6133.3
6130.66
6128.02
6125.39
6122.75
6120.13
6117.5
6114.89
6112.28
6109.68
6107.09
6104.5
6101.92
6099.34
6096.76
6094.18
6091.59
6088.99
6086.38
6083.75
6081.11
6078.44
6075.75
6073.03
6070.29
6067.52
6064.72
6061.89
6059.03
6056.15
6053.24
6050.3
6047.33
6044.35
6041.34
6038.3
6035.25
6032.18
6029.08
6025.97
6022.84
6019.69
6016.53
6013.35
6010.16
6006.94
6003.72
6000.47
5997.2
5993.91
5990.6
5987.26
5983.89
5980.49
5977.05
5973.57
5970.05
5966.48
5962.86
5959.17
5955.42
5951.59
5947.68
5943.67
5939.57
5935.34
5930.99
5926.49
5921.82
5916.97
5911.9
5906.58
5900.98
5895.06
5888.76
5882.01
5874.77
5866.96
5858.57
5849.63
5840.26
5830.59
5820.69
5810.6
5800.28
5789.6
5778.24
5765.45
5749.49
5726.91
5706.55
5686.78
5667.27
5647.66
5627.65
5606.71
5590.62
5575.01
5559
5542.51
5525.92
5511.15
5498.02
5487.22
5478.64
5471.97
5466.91
5463.25
5460.88
5459.72
6221.97
6221.21
6219.83
6218.03
6215.99
6213.81
6211.59
6209.36
6207.14
6204.95
6202.79
6200.66
6198.55
6196.46
6194.39
6192.32
6190.25
6188.18
6186.09
6183.99
6181.87
6179.71
6177.53
6175.32
6173.07
6170.79
6168.47
6166.12
6163.73
6161.31
6158.86
6156.38
6153.88
6151.35
6148.8
6146.22
6143.63
6141.02
6138.4
6135.76
6133.12
6130.48
6127.83
6125.19
6122.55
6119.92
6117.29
6114.68
6112.07
6109.48
6106.89
6104.31
6101.74
6099.17
6096.61
6094.04
6091.46
6088.88
6086.28
6083.67
6081.04
6078.38
6075.7
6073
6070.26
6067.49
6064.69
6061.87
6059.01
6056.12
6053.21
6050.27
6047.3
6044.31
6041.29
6038.26
6035.2
6032.12
6029.03
6025.91
6022.78
6019.63
6016.47
6013.29
6010.1
6006.89
6003.67
6000.43
5997.17
5993.89
5990.59
5987.27
5983.92
5980.54
5977.12
5973.67
5970.18
5966.63
5963.04
5959.39
5955.68
5951.9
5948.04
5944.1
5940.06
5935.92
5931.65
5927.25
5922.7
5917.98
5913.07
5907.92
5902.51
5896.79
5890.7
5884.16
5877.07
5869.34
5860.89
5851.77
5842.22
5832.5
5822.74
5813.03
5803.41
5793.89
5784.36
5774.37
5762.08
5749.1
5713.83
5687.14
5666.44
5644.12
5618.95
5597.9
5587.14
5572.99
5556.97
5539.3
5519.31
5503.85
5489.25
5478.31
5470.17
5464.06
5459.5
5456.23
5454.12
5453.08
6217.87
6217.32
6216.3
6214.91
6213.26
6211.45
6209.54
6207.58
6205.6
6203.61
6201.62
6199.64
6197.66
6195.69
6193.71
6191.73
6189.74
6187.74
6185.71
6183.66
6181.58
6179.47
6177.32
6175.13
6172.91
6170.64
6168.33
6165.99
6163.61
6161.19
6158.74
6156.26
6153.75
6151.21
6148.65
6146.07
6143.47
6140.85
6138.21
6135.57
6132.91
6130.26
6127.6
6124.95
6122.3
6119.66
6117.04
6114.42
6111.82
6109.23
6106.65
6104.08
6101.52
6098.97
6096.42
6093.87
6091.32
6088.75
6086.17
6083.58
6080.96
6078.32
6075.65
6072.96
6070.23
6067.46
6064.67
6061.84
6058.98
6056.09
6053.17
6050.23
6047.26
6044.26
6041.24
6038.2
6035.14
6032.06
6028.96
6025.84
6022.71
6019.56
6016.4
6013.22
6010.03
6006.83
6003.61
6000.38
5997.14
5993.87
5990.59
5987.28
5983.95
5980.59
5977.2
5973.78
5970.31
5966.81
5963.26
5959.65
5955.99
5952.26
5948.47
5944.59
5940.63
5936.58
5932.42
5928.14
5923.73
5919.17
5914.43
5909.5
5904.32
5898.87
5893.06
5886.81
5879.98
5872.39
5863.84
5854.27
5844.33
5834.4
5824.69
5815.31
5806.4
5798.13
5790.87
5785.48
5777.06
5778.26
5736.71
5691.19
5655.98
5631.63
5613.02
5596.66
5585.33
5570.7
5552.21
5529.01
5508.11
5495.62
5476.77
5466.53
5459.63
5454.56
5450.76
5448.03
5446.24
5445.36
6214.23
6213.81
6213.02
6211.92
6210.58
6209.07
6207.43
6205.72
6203.96
6202.16
6200.35
6198.52
6196.68
6194.83
6192.97
6191.08
6189.18
6187.25
6185.29
6183.3
6181.28
6179.21
6177.09
6174.94
6172.73
6170.48
6168.19
6165.85
6163.47
6161.05
6158.6
6156.11
6153.6
6151.06
6148.49
6145.89
6143.28
6140.64
6138
6135.34
6132.67
6130
6127.33
6124.66
6122.01
6119.36
6116.73
6114.11
6111.51
6108.93
6106.36
6103.81
6101.26
6098.73
6096.2
6093.67
6091.14
6088.6
6086.05
6083.47
6080.88
6078.26
6075.6
6072.92
6070.19
6067.44
6064.64
6061.81
6058.95
6056.06
6053.13
6050.18
6047.21
6044.21
6041.18
6038.14
6035.07
6031.98
6028.88
6025.76
6022.62
6019.47
6016.31
6013.13
6009.95
6006.75
6003.54
6000.32
5997.09
5993.84
5990.57
5987.29
5983.98
5980.65
5977.29
5973.9
5970.47
5967
5963.49
5959.94
5956.33
5952.66
5948.94
5945.14
5941.27
5937.32
5933.28
5929.14
5924.88
5920.5
5915.97
5911.28
5906.39
5901.26
5895.83
5890
5883.61
5876.37
5867.73
5857.08
5846.36
5836.04
5826.25
5817.09
5808.68
5801.31
5795.45
5791.93
5787.67
5782.97
5745.23
5688.92
5646.4
5617.52
5594.85
5576.89
5563.02
5548.59
5538.47
5519.5
5499.3
5473.57
5455.61
5451.35
5447.23
5443.72
5440.92
5438.83
5437.43
5436.74
6210.89
6210.57
6209.94
6209.06
6207.95
6206.68
6205.29
6203.8
6202.24
6200.64
6199
6197.33
6195.63
6193.91
6192.16
6190.38
6188.57
6186.73
6184.85
6182.92
6180.95
6178.93
6176.86
6174.73
6172.55
6170.32
6168.04
6165.7
6163.32
6160.9
6158.45
6155.96
6153.44
6150.88
6148.3
6145.7
6143.07
6140.42
6137.75
6135.07
6132.39
6129.7
6127.01
6124.33
6121.66
6119.01
6116.37
6113.75
6111.16
6108.58
6106.02
6103.49
6100.96
6098.45
6095.95
6093.45
6090.94
6088.43
6085.91
6083.36
6080.79
6078.19
6075.55
6072.88
6070.17
6067.41
6064.62
6061.79
6058.92
6056.02
6053.09
6050.14
6047.15
6044.14
6041.11
6038.06
6034.99
6031.9
6028.79
6025.66
6022.52
6019.36
6016.2
6013.02
6009.84
6006.65
6003.45
6000.24
5997.03
5993.8
5990.55
5987.29
5984.01
5980.71
5977.38
5974.02
5970.63
5967.21
5963.75
5960.25
5956.7
5953.1
5949.45
5945.74
5941.97
5938.13
5934.21
5930.22
5926.13
5921.95
5917.65
5913.23
5908.66
5903.92
5898.97
5893.72
5888.06
5881.65
5873.49
5859.9
5847.95
5837.1
5827.16
5818.05
5809.89
5802.94
5797.67
5795.16
5792.58
5785.69
5737.39
5672.87
5623.21
5585.08
5555.89
5534.78
5520.35
5509.99
5505.35
5487.56
5458.82
5436.34
5437.11
5436
5434.15
5432.15
5430.34
5428.89
5427.89
5427.38
6207.77
6207.51
6207
6206.28
6205.37
6204.31
6203.12
6201.84
6200.48
6199.06
6197.59
6196.08
6194.53
6192.94
6191.31
6189.64
6187.93
6186.18
6184.38
6182.52
6180.62
6178.65
6176.62
6174.53
6172.37
6170.16
6167.88
6165.55
6163.17
6160.75
6158.29
6155.79
6153.26
6150.7
6148.11
6145.49
6142.84
6140.17
6137.48
6134.78
6132.07
6129.36
6126.65
6123.95
6121.27
6118.6
6115.96
6113.34
6110.74
6108.17
6105.63
6103.11
6100.61
6098.13
6095.66
6093.19
6090.72
6088.24
6085.75
6083.24
6080.69
6078.12
6075.5
6072.85
6070.15
6067.4
6064.61
6061.77
6058.9
6055.99
6053.05
6050.08
6047.09
6044.07
6041.04
6037.98
6034.9
6031.8
6028.68
6025.54
6022.4
6019.24
6016.07
6012.89
6009.71
6006.53
6003.34
6000.15
5996.95
5993.74
5990.52
5987.28
5984.03
5980.76
5977.46
5974.15
5970.8
5967.43
5964.02
5960.57
5957.09
5953.56
5949.99
5946.37
5942.7
5938.98
5935.19
5931.35
5927.45
5923.47
5919.42
5915.3
5911.08
5906.77
5902.35
5897.82
5893.19
5888.57
5884.47
5872.09
5853.91
5839.22
5827.45
5817.98
5809.41
5801.84
5797.08
5796.04
5794.35
5766.76
5703.34
5641.98
5588.47
5543.74
5508.87
5486.06
5473.72
5465.82
5457.26
5438.61
5415.67
5413.19
5419.72
5421.36
5421.18
5420.35
5419.36
5418.47
5417.82
5417.48
6204.78
6204.57
6204.17
6203.58
6202.83
6201.95
6200.95
6199.86
6198.68
6197.44
6196.14
6194.79
6193.38
6191.93
6190.43
6188.88
6187.28
6185.62
6183.9
6182.13
6180.28
6178.37
6176.39
6174.34
6172.21
6170.01
6167.74
6165.41
6163.02
6160.59
6158.12
6155.61
6153.07
6150.5
6147.89
6145.26
6142.59
6139.9
6137.18
6134.45
6131.72
6128.98
6126.24
6123.52
6120.82
6118.14
6115.48
6112.86
6110.27
6107.71
6105.18
6102.69
6100.22
6097.77
6095.33
6092.9
6090.47
6088.04
6085.58
6083.11
6080.6
6078.06
6075.47
6072.83
6070.14
6067.4
6064.6
6061.76
6058.87
6055.95
6053
6050.02
6047.02
6044
6040.95
6037.88
6034.8
6031.69
6028.56
6025.41
6022.26
6019.09
6015.91
6012.74
6009.56
6006.39
6003.21
6000.03
5996.85
5993.66
5990.47
5987.26
5984.04
5980.8
5977.55
5974.27
5970.97
5967.65
5964.29
5960.91
5957.49
5954.04
5950.55
5947.02
5943.46
5939.85
5936.21
5932.53
5928.8
5925.04
5921.25
5917.42
5913.57
5909.69
5905.81
5901.97
5898.25
5894.85
5892.33
5887.3
5869.13
5848.09
5829.3
5814.77
5805.54
5800.45
5796.98
5795.27
5793.12
5740.63
5667.26
5603.23
5544.94
5492.52
5449.78
5426.88
5422.65
5422.33
5419.34
5408.96
5401.94
5404.98
5407.2
5408.48
5408.84
5408.66
5408.23
5407.77
5407.4
5407.2
6201.89
6201.72
6201.4
6200.93
6200.33
6199.6
6198.78
6197.86
6196.86
6195.8
6194.66
6193.47
6192.22
6190.9
6189.53
6188.1
6186.61
6185.06
6183.43
6181.74
6179.97
6178.12
6176.19
6174.17
6172.07
6169.88
6167.61
6165.27
6162.87
6160.42
6157.94
6155.42
6152.87
6150.29
6147.67
6145.02
6142.33
6139.61
6136.86
6134.1
6131.32
6128.55
6125.79
6123.04
6120.31
6117.61
6114.94
6112.31
6109.72
6107.17
6104.67
6102.2
6099.76
6097.35
6094.96
6092.58
6090.2
6087.81
6085.41
6082.98
6080.51
6078
6075.45
6072.83
6070.15
6067.41
6064.61
6061.76
6058.85
6055.91
6052.94
6049.95
6046.94
6043.91
6040.86
6037.78
6034.68
6031.56
6028.42
6025.27
6022.09
6018.92
6015.74
6012.56
6009.38
6006.21
6003.05
5999.89
5996.73
5993.56
5990.4
5987.22
5984.04
5980.84
5977.62
5974.39
5971.14
5967.87
5964.57
5961.25
5957.9
5954.52
5951.12
5947.68
5944.23
5940.74
5937.23
5933.71
5930.17
5926.62
5923.07
5919.54
5916.04
5912.58
5909.2
5905.95
5902.89
5900.14
5897.98
5895.97
5875.59
5848.23
5828.69
5811.08
5798.11
5787.53
5777.49
5765.39
5743.51
5684.9
5621.83
5558.76
5495.55
5431.64
5370.86
5349.02
5367.69
5381.5
5388.83
5388.28
5390.45
5394.53
5395.56
5396.49
5397.02
5397.18
5397.11
5396.94
5396.78
5396.68
6199.06
6198.93
6198.68
6198.31
6197.84
6197.27
6196.6
6195.86
6195.03
6194.14
6193.17
6192.14
6191.04
6189.87
6188.63
6187.33
6185.95
6184.5
6182.98
6181.37
6179.68
6177.89
6176.02
6174.04
6171.96
6169.78
6167.51
6165.15
6162.73
6160.25
6157.74
6155.21
6152.66
6150.07
6147.45
6144.78
6142.07
6139.31
6136.52
6133.71
6130.89
6128.08
6125.27
6122.49
6119.74
6117.02
6114.33
6111.69
6109.1
6106.56
6104.08
6101.64
6099.25
6096.88
6094.55
6092.22
6089.9
6087.57
6085.23
6082.85
6080.43
6077.97
6075.45
6072.86
6070.2
6067.46
6064.65
6061.77
6058.84
6055.87
6052.88
6049.87
6046.85
6043.81
6040.75
6037.67
6034.57
6031.43
6028.28
6025.1
6021.91
6018.72
6015.52
6012.34
6009.16
6006
6002.85
5999.71
5996.58
5993.44
5990.31
5987.17
5984.02
5980.86
5977.69
5974.5
5971.3
5968.08
5964.84
5961.58
5958.3
5955
5951.68
5948.35
5944.99
5941.62
5938.25
5934.88
5931.51
5928.17
5924.86
5921.6
5918.42
5915.35
5912.42
5909.68
5907.15
5904.71
5901.57
5900.79
5883.75
5852.49
5826.14
5802.76
5781.92
5762.13
5741.36
5716.63
5682.93
5633.63
5576.4
5514.42
5446.88
5367.61
5301.92
5288.72
5317.58
5347.15
5366.35
5374.9
5379.4
5383.15
5384
5384.87
5385.51
5385.88
5386.04
5386.08
5386.06
5386.04
6196.25
6196.16
6195.98
6195.71
6195.36
6194.93
6194.43
6193.85
6193.2
6192.47
6191.67
6190.8
6189.86
6188.83
6187.74
6186.56
6185.31
6183.97
6182.55
6181.03
6179.43
6177.72
6175.9
6173.97
6171.91
6169.74
6167.45
6165.05
6162.58
6160.07
6157.54
6154.99
6152.43
6149.85
6147.22
6144.54
6141.8
6139.01
6136.16
6133.29
6130.42
6127.55
6124.7
6121.89
6119.1
6116.35
6113.64
6110.98
6108.39
6105.87
6103.41
6101.01
6098.66
6096.36
6094.09
6091.83
6089.58
6087.32
6085.04
6082.73
6080.37
6077.96
6075.49
6072.93
6070.29
6067.55
6064.72
6061.81
6058.84
6055.83
6052.81
6049.78
6046.75
6043.71
6040.65
6037.56
6034.44
6031.29
6028.12
6024.92
6021.71
6018.49
6015.28
6012.08
6008.9
6005.75
6002.62
5999.5
5996.39
5993.29
5990.19
5987.09
5983.98
5980.87
5977.74
5974.6
5971.45
5968.28
5965.11
5961.91
5958.7
5955.48
5952.24
5948.99
5945.74
5942.48
5939.24
5936.01
5932.8
5929.65
5926.56
5923.56
5920.67
5917.94
5915.41
5913.14
5911.22
5909.81
5906.58
5904.72
5886.19
5851.83
5820.64
5791.89
5764.69
5737.71
5709.19
5676.86
5637.94
5590.29
5535.72
5475.63
5409.92
5336.6
5290.13
5284.19
5294.56
5323.16
5349.26
5362.92
5365.43
5371.15
5372.36
5373.44
5374.24
5374.76
5375.07
5375.23
5375.31
5375.33
6193.44
6193.38
6193.27
6193.1
6192.87
6192.59
6192.24
6191.84
6191.36
6190.81
6190.18
6189.47
6188.68
6187.81
6186.86
6185.82
6184.69
6183.47
6182.15
6180.74
6179.23
6177.6
6175.85
6173.96
6171.94
6169.77
6167.45
6164.99
6162.44
6159.87
6157.29
6154.74
6152.19
6149.63
6147.02
6144.33
6141.56
6138.71
6135.79
6132.85
6129.9
6126.97
6124.07
6121.21
6118.38
6115.6
6112.86
6110.18
6107.58
6105.07
6102.64
6100.29
6098
6095.77
6093.57
6091.4
6089.23
6087.05
6084.85
6082.62
6080.33
6077.99
6075.58
6073.07
6070.45
6067.71
6064.84
6061.87
6058.83
6055.77
6052.7
6049.66
6046.62
6043.59
6040.53
6037.44
6034.32
6031.15
6027.95
6024.72
6021.47
6018.22
6014.98
6011.77
6008.59
6005.45
6002.34
5999.25
5996.18
5993.12
5990.05
5986.99
5983.92
5980.85
5977.77
5974.68
5971.58
5968.47
5965.36
5962.23
5959.09
5955.94
5952.78
5949.62
5946.46
5943.31
5940.18
5937.07
5934.02
5931.04
5928.14
5925.36
5922.73
5920.29
5918.09
5916.19
5914.68
5913.72
5911.68
5908.3
5886.5
5848.01
5812.7
5779.46
5747.23
5714.82
5680.84
5643.66
5601.69
5553.87
5500.56
5442.47
5380.59
5317.47
5282.86
5279.45
5278.1
5301.68
5335.04
5352.36
5353.03
5358.4
5360.83
5362.26
5363.19
5363.81
5364.2
5364.44
5364.56
5364.62
6190.59
6190.57
6190.53
6190.46
6190.36
6190.23
6190.05
6189.82
6189.52
6189.15
6188.7
6188.16
6187.54
6186.82
6186.01
6185.1
6184.1
6183.01
6181.81
6180.51
6179.09
6177.55
6175.88
6174.06
6172.07
6169.9
6167.53
6164.97
6162.3
6159.61
6157
6154.45
6151.93
6149.42
6146.84
6144.16
6141.35
6138.43
6135.42
6132.37
6129.32
6126.31
6123.36
6120.46
6117.6
6114.76
6111.98
6109.26
6106.65
6104.15
6101.76
6099.47
6097.26
6095.11
6093.01
6090.93
6088.85
6086.77
6084.66
6082.52
6080.33
6078.07
6075.72
6073.27
6070.69
6067.95
6065.04
6061.98
6058.83
6055.67
6052.55
6049.49
6046.47
6043.46
6040.42
6037.34
6034.2
6031.01
6027.78
6024.51
6021.22
6017.92
6014.63
6011.4
6008.21
6005.08
6002
5998.95
5995.92
5992.91
5989.89
5986.87
5983.84
5980.81
5977.78
5974.74
5971.7
5968.65
5965.59
5962.52
5959.45
5956.37
5953.29
5950.21
5947.14
5944.08
5941.05
5938.07
5935.14
5932.3
5929.57
5926.98
5924.57
5922.36
5920.42
5918.78
5917.52
5916.76
5915.49
5910.45
5882.74
5841
5802.7
5766.02
5729.95
5693.52
5655.67
5615.27
5571.27
5522.96
5470.18
5413.1
5352.48
5296.61
5274.84
5274.62
5273.83
5291.37
5324.13
5342.31
5346.5
5348.54
5350.26
5351.53
5352.43
5353.05
5353.46
5353.71
5353.86
5353.92
6187.69
6187.7
6187.73
6187.77
6187.8
6187.83
6187.83
6187.79
6187.69
6187.51
6187.24
6186.88
6186.42
6185.86
6185.19
6184.43
6183.56
6182.6
6181.52
6180.34
6179.03
6177.6
6176.01
6174.27
6172.34
6170.18
6167.78
6165.01
6162.13
6159.24
6156.59
6154.07
6151.64
6149.22
6146.74
6144.08
6141.22
6138.19
6135.06
6131.85
6128.65
6125.56
6122.57
6119.64
6116.74
6113.85
6110.99
6108.21
6105.57
6103.08
6100.74
6098.53
6096.42
6094.38
6092.39
6090.42
6088.46
6086.48
6084.48
6082.44
6080.35
6078.19
6075.95
6073.58
6071.06
6068.33
6065.36
6062.14
6058.81
6055.5
6052.32
6049.26
6046.28
6043.32
6040.33
6037.26
6034.11
6030.89
6027.62
6024.29
6020.93
6017.56
6014.21
6010.94
6007.75
6004.64
6001.6
5998.61
5995.63
5992.66
5989.69
5986.72
5983.74
5980.75
5977.77
5974.78
5971.79
5968.79
5965.8
5962.79
5959.79
5956.78
5953.77
5950.77
5947.78
5944.8
5941.86
5938.96
5936.14
5933.42
5930.83
5928.4
5926.15
5924.13
5922.37
5920.91
5919.79
5919.12
5918.36
5904.5
5869.8
5830.56
5791.06
5751.97
5713.03
5673.64
5633.06
5590.48
5545.16
5496.51
5444.1
5387.28
5324.15
5278.62
5270.91
5270.54
5271.04
5282.87
5313.1
5333.12
5337.92
5338.94
5340.12
5341.13
5341.9
5342.46
5342.83
5343.06
5343.2
5343.26
6184.69
6184.74
6184.85
6185
6185.18
6185.39
6185.59
6185.75
6185.86
6185.89
6185.81
6185.63
6185.34
6184.94
6184.43
6183.81
6183.08
6182.24
6181.3
6180.24
6179.06
6177.74
6176.27
6174.62
6172.78
6170.67
6168.34
6165.13
6161.93
6158.59
6156.02
6153.57
6151.29
6149.07
6146.76
6144.18
6141.2
6138.03
6134.73
6131.3
6127.83
6124.66
6121.69
6118.77
6115.83
6112.86
6109.89
6107
6104.3
6101.83
6099.56
6097.46
6095.47
6093.57
6091.71
6089.88
6088.04
6086.19
6084.31
6082.38
6080.41
6078.37
6076.25
6074.02
6071.61
6068.94
6065.89
6062.37
6058.74
6055.17
6051.94
6048.91
6046.03
6043.19
6040.29
6037.23
6034.05
6030.8
6027.47
6024.08
6020.64
6017.15
6013.69
6010.36
6007.17
6004.11
6001.13
5998.21
5995.3
5992.39
5989.47
5986.54
5983.61
5980.66
5977.72
5974.79
5971.85
5968.92
5965.98
5963.04
5960.1
5957.16
5954.22
5951.28
5948.36
5945.45
5942.58
5939.76
5937.02
5934.39
5931.9
5929.58
5927.47
5925.59
5923.96
5922.61
5921.55
5920.84
5920.21
5900.91
5861.4
5820.37
5779.02
5737.78
5696.56
5654.96
5612.44
5568.43
5522.37
5473.83
5422.44
5367.76
5308.81
5272.89
5268.48
5268.05
5269
5280.75
5307.09
5323.45
5328.35
5329.16
5330.1
5330.93
5331.56
5332.01
5332.3
5332.48
5332.58
5332.62
6181.56
6181.65
6181.84
6182.12
6182.47
6182.88
6183.31
6183.71
6184.06
6184.3
6184.43
6184.44
6184.32
6184.08
6183.72
6183.24
6182.65
6181.95
6181.14
6180.22
6179.17
6178
6176.66
6175.11
6173.46
6171.32
6169.73
6166.13
6160.89
6157.13
6155.3
6152.85
6150.85
6148.96
6147
6144.66
6141.33
6137.97
6134.49
6130.76
6126.66
6123.53
6120.71
6117.87
6114.92
6111.84
6108.66
6105.55
6102.78
6100.35
6098.19
6096.23
6094.41
6092.67
6090.98
6089.3
6087.61
6085.89
6084.14
6082.34
6080.5
6078.61
6076.65
6074.6
6072.38
6069.89
6066.86
6062.66
6058.6
6054.46
6051.33
6048.38
6045.7
6043.1
6040.37
6037.28
6034.05
6030.74
6027.36
6023.9
6020.35
6016.68
6012.99
6009.62
6006.44
6003.46
6000.58
5997.76
5994.94
5992.1
5989.24
5986.35
5983.44
5980.54
5977.64
5974.76
5971.88
5969.01
5966.13
5963.25
5960.38
5957.5
5954.62
5951.75
5948.89
5946.04
5943.21
5940.43
5937.74
5935.17
5932.76
5930.53
5928.51
5926.74
5925.21
5923.95
5922.92
5921.9
5921.29
5898.73
5854.52
5810.51
5766.85
5723.57
5680.47
5637.19
5593.33
5548.42
5502.07
5453.99
5404.07
5352.51
5299.96
5270.69
5267.56
5267.69
5268.55
5271.88
5294.22
5312.14
5318.15
5319.21
5320.16
5320.87
5321.36
5321.67
5321.85
5321.94
5321.97
5321.98
6178.26
6178.4
6178.68
6179.09
6179.63
6180.28
6180.99
6181.67
6182.29
6182.78
6183.12
6183.32
6183.38
6183.29
6183.08
6182.74
6182.29
6181.72
6181.05
6180.27
6179.38
6178.37
6177.19
6175.67
6174.57
6173.17
6170.63
6165.36
6160.07
6156.54
6153.81
6151.63
6150.25
6148.91
6147.57
6146.09
6143.59
6139.43
6133.56
6128.33
6124.48
6122.06
6119.69
6117.06
6114.12
6110.86
6107.34
6103.73
6100.87
6098.55
6096.59
6094.84
6093.23
6091.7
6090.2
6088.7
6087.17
6085.6
6083.98
6082.32
6080.61
6078.87
6077.11
6075.3
6073.41
6071.33
6068.98
6064.23
6057.56
6052.71
6050.51
6047.57
6045.25
6043.11
6040.79
6037.45
6034.08
6030.72
6027.31
6023.79
6020.13
6016.21
6011.94
6008.66
6005.49
6002.65
5999.95
5997.27
5994.56
5991.8
5988.99
5986.13
5983.25
5980.37
5977.52
5974.69
5971.88
5969.06
5966.25
5963.43
5960.62
5957.8
5954.99
5952.18
5949.37
5946.56
5943.75
5940.98
5938.3
5935.75
5933.39
5931.22
5929.27
5927.56
5926.12
5924.99
5924.26
5923.1
5921.83
5896.16
5847.46
5800.29
5754.31
5709.18
5664.54
5620.02
5575.25
5529.85
5483.5
5435.99
5387.32
5338.27
5292.2
5269.6
5267.32
5267.37
5267.93
5270.12
5288.9
5302.8
5307.36
5309.34
5310.4
5311
5311.31
5311.44
5311.45
5311.41
5311.36
5311.32
6174.76
6174.94
6175.3
6175.86
6176.63
6177.57
6178.62
6179.65
6180.58
6181.33
6181.91
6182.3
6182.52
6182.59
6182.51
6182.31
6181.99
6181.56
6181.03
6180.39
6179.65
6178.87
6178.02
6176.99
6175.39
6170.93
6166.05
6161.01
6157.27
6154.41
6152.54
6150.77
6149.58
6148.81
6148.25
6147.47
6143.73
6137.83
6131.67
6126.4
6122.72
6120.5
6118.9
6116.52
6113.59
6110.13
6106.07
6101.13
6098.37
6096.38
6094.73
6093.29
6091.95
6090.66
6089.39
6088.1
6086.75
6085.33
6083.85
6082.3
6080.72
6079.13
6077.57
6076.07
6074.61
6072.99
6071.35
6064.99
6056.42
6051.52
6048.7
6046.1
6044.58
6043.27
6042.2
6040.2
6035.19
6030.28
6027.82
6023.83
6018.59
6013.62
6009.87
6007.54
6004.18
6001.68
5999.27
5996.78
5994.2
5991.52
5988.75
5985.91
5983.03
5980.15
5977.34
5974.58
5971.83
5969.09
5966.33
5963.57
5960.82
5958.06
5955.31
5952.57
5949.82
5947.04
5944.21
5941.41
5938.69
5936.12
5933.77
5931.64
5929.73
5928.05
5926.65
5925.59
5924.98
5924.11
5921.92
5891.97
5838.86
5788.88
5740.93
5694.3
5648.5
5603.11
5557.8
5512.23
5466.11
5419.13
5370.96
5321.06
5280.98
5267.75
5267.02
5267.06
5267.08
5268.64
5285.38
5297.47
5299.12
5300.36
5301.07
5301.37
5301.4
5301.27
5301.06
5300.85
5300.68
5300.59
6171.01
6171.22
6171.66
6172.37
6173.38
6174.68
6176.2
6177.68
6178.98
6180.02
6180.82
6181.4
6181.77
6181.98
6182.03
6181.95
6181.76
6181.46
6181.07
6180.57
6179.9
6179.4
6178.67
6174.18
6168.97
6162.83
6158.18
6154.41
6151.73
6150.11
6149.69
6150.02
6149.07
6148.48
6148.35
6147.73
6142.85
6135.11
6128.37
6122.91
6119.28
6117.88
6117.79
6116.09
6112.57
6107.16
6101.01
6096.31
6095.07
6093.81
6092.65
6091.58
6090.58
6089.59
6088.58
6087.51
6086.36
6085.11
6083.74
6082.29
6080.81
6079.34
6077.95
6076.76
6075.93
6075.03
6070.55
6061.05
6052.8
6047.42
6044.72
6043.35
6043.67
6043.17
6042.6
6040.6
6034.3
6027.01
6023.11
6019.96
6015.85
6012.14
6008.23
6004.86
6001.98
6000.57
5998.62
5996.36
5993.9
5991.29
5988.55
5985.7
5982.77
5979.81
5977.07
5974.41
5971.75
5969.08
5966.38
5963.68
5960.97
5958.27
5955.59
5952.92
5950.25
5947.52
5944.59
5941.69
5938.88
5936.21
5933.89
5931.8
5929.89
5928.18
5926.77
5925.74
5925.16
5924.38
5921.11
5883.69
5827.12
5775.43
5726.24
5678.61
5632.03
5586.13
5540.6
5495.17
5449.57
5403.46
5356.32
5307.04
5273.79
5266.99
5266.66
5266.75
5266.88
5267.76
5279.97
5290.54
5291.26
5291.86
5292.09
5291.98
5291.62
5291.14
5290.65
5290.21
5289.9
5289.73
6166.98
6167.21
6167.69
6168.51
6169.76
6171.53
6173.74
6175.85
6177.57
6178.9
6179.91
6180.64
6181.15
6181.47
6181.63
6181.66
6181.59
6181.42
6181.18
6180.87
6180.42
6178.91
6172.78
6164.37
6158.29
6153.25
6149.44
6146.74
6145.13
6144.59
6145.24
6147.29
6148.18
6148.19
6147.66
6146.7
6140.59
6131.38
6123.8
6117.15
6113.41
6114.86
6115.5
6112.34
6105.02
6097.5
6094.07
6092.29
6091.76
6091.11
6090.44
6089.8
6089.16
6088.5
6087.79
6086.99
6086.05
6084.96
6083.67
6082.28
6080.85
6079.43
6078.11
6077.07
6076.42
6075.96
6068.86
6056.39
6046.04
6038.46
6033.77
6033.16
6036.8
6040.92
6040.84
6035.8
6026.82
6019.23
6016.14
6014.21
6011.22
6008.71
6005.46
6002.7
6001.04
5999.96
5998.23
5996.12
5993.73
5991.14
5988.41
5985.53
5982.49
5979.23
5976.68
5974.19
5971.65
5969.05
5966.41
5963.74
5961.07
5958.42
5955.8
5953.23
5950.7
5948.12
5944.87
5941.84
5938.88
5935.88
5933.7
5931.71
5929.78
5927.97
5926.53
5925.44
5924.84
5924.12
5907.96
5861.97
5810.5
5759.5
5709.97
5661.86
5614.88
5568.77
5523.3
5478.28
5433.53
5388.84
5343.81
5297.74
5269.89
5265.98
5266.18
5266.42
5266.73
5268.28
5274.94
5282.86
5283.48
5283.69
5283.43
5282.79
5281.92
5280.99
5280.13
5279.42
5278.92
5278.67
6162.66
6162.87
6163.33
6164.16
6165.57
6167.87
6171.33
6174.34
6176.49
6178.06
6179.22
6180.07
6180.67
6181.08
6181.33
6181.45
6181.47
6181.4
6181.3
6180.64
6175.3
6168.81
6159.91
6152.3
6146.59
6142.43
6139.59
6137.96
6137.47
6137.9
6139.39
6142.57
6146.16
6144.73
6144.78
6144.58
6136.19
6126.02
6118.3
6112.11
6109.78
6112.34
6113.04
6106.02
6095.43
6088.54
6088.75
6088.63
6088.54
6088.39
6088.19
6087.97
6087.72
6087.43
6087.06
6086.56
6085.87
6084.99
6083.68
6082.28
6080.85
6079.41
6077.96
6076.96
6076.25
6075.5
6066.02
6049.62
6036.53
6026.61
6019.38
6016.57
6018.68
6021.32
6027.49
6025.26
6018.76
6014.9
6013.22
6011.13
6008.81
6007.33
6005.12
6002.86
6001.39
5999.63
5997.81
5995.83
5993.3
5990.64
5988.07
5985.11
5981.29
5977.88
5976.2
5973.99
5971.56
5969.02
5966.41
5963.76
5961.11
5958.49
5955.92
5953.43
5951.13
5949.29
5944.85
5941.95
5937.91
5934.65
5933.28
5931.51
5929.55
5927.43
5925.94
5924.67
5923.96
5922.89
5897.45
5845.73
5793.41
5742.1
5692.3
5643.96
5596.86
5550.77
5505.55
5461.11
5417.44
5374.55
5332.35
5290.39
5267.02
5264.96
5265.48
5266.02
5266.75
5268.13
5270.5
5274.81
5276.05
5275.96
5275.1
5273.78
5272.25
5270.74
5269.42
5268.38
5267.67
5267.32
6158.06
6158.21
6158.54
6159.17
6160.4
6162.97
6169.32
6173.63
6175.95
6177.57
6178.79
6179.7
6180.34
6180.81
6181.11
6181.28
6181.39
6181.39
6176.74
6170.87
6161.96
6154.02
6145.76
6138.31
6133.36
6130.28
6128.54
6128.04
6128.89
6130.13
6131.84
6134.17
6137.29
6135.96
6136.2
6134.99
6126.35
6118.21
6111.26
6105.49
6103.21
6104.76
6103.64
6097.16
6088.9
6084.08
6083.78
6085.02
6085.36
6085.68
6085.94
6086.14
6086.3
6086.41
6086.43
6086.29
6085.86
6085.39
6084.34
6082.38
6080.55
6078.81
6077.33
6076.52
6075.37
6072.93
6060.92
6039.63
6023.83
6012.07
6003.26
5999.8
5999.48
5996.04
6007.71
6019.31
6015.29
6013.39
6013.25
6011.01
6008.5
6006.69
6005.23
6003.84
5996.12
5989.58
5985.85
5982.9
5980.04
5977.33
5974.74
5972.04
5969.45
5968.21
5966.6