/*--------------------------------*- C++ -*----------------------------------*\
| =========                 |                                                 |
| \\      /  F ield         | OpenFOAM: The Open Source CFD Toolbox           |
|  \\    /   O peration     | Version:  2.1.0                                 |
|   \\  /    A nd           | Web:      www.OpenFOAM.org                      |
|    \\/     M anipulation  |                                                 |
\*---------------------------------------------------------------------------*/
FoamFile
{
    version     2.0;
    format      ascii;
    class       volScalarField;
    location    "44165";
    object      so;
}
// * * * * * * * * * * * * * * * * * * * * * * * * * * * * * * * * * * * * * //

dimensions      [0 0 0 0 0 0 0];

internalField   nonuniform List<scalar> 
15000
(
0.2
0.200003
0.200004
0.200066
0.200787
0.203745
0.210121
0.219408
0.230291
0.241707
0.253051
0.264034
0.274532
0.284503
0.293944
0.302868
0.311298
0.31926
0.32678
0.333886
0.340605
0.346964
0.352987
0.3587
0.364126
0.369286
0.374203
0.378895
0.383383
0.387682
0.391809
0.395781
0.39961
0.40331
0.406895
0.410375
0.41376
0.417059
0.42028
0.423428
0.426511
0.429533
0.432502
0.43542
0.438292
0.441122
0.443912
0.446665
0.449382
0.452065
0.454715
0.457333
0.459918
0.46247
0.464988
0.467472
0.46992
0.472332
0.474707
0.477045
0.479343
0.481604
0.483825
0.486007
0.488151
0.490257
0.492327
0.49436
0.496359
0.498324
0.500258
0.502162
0.504036
0.505883
0.507704
0.5095
0.511272
0.513021
0.514749
0.516457
0.518145
0.519813
0.521464
0.523096
0.524712
0.526311
0.527893
0.529458
0.531006
0.532537
0.534051
0.535547
0.537025
0.538485
0.539924
0.541344
0.542742
0.544119
0.545472
0.5468
0.548103
0.54938
0.550628
0.551848
0.553036
0.554193
0.555318
0.556408
0.557465
0.558487
0.559474
0.560426
0.561345
0.56223
0.563084
0.563908
0.564702
0.565469
0.56621
0.566928
0.56763
0.568326
0.569028
0.569755
0.570531
0.571377
0.572306
0.573293
0.574241
0.575024
0.575617
0.576044
0.576343
0.576643
0.576947
0.577258
0.577579
0.577914
0.578264
0.578633
0.579027
0.579456
0.579934
0.580479
0.581119
0.581899
0.58289
0.584237
0.586307
0.590636
0.200003
0.200006
0.200011
0.200182
0.201421
0.205332
0.212573
0.2223
0.233266
0.244576
0.255741
0.26653
0.276843
0.286648
0.295943
0.304741
0.313061
0.320928
0.328365
0.335399
0.342055
0.348358
0.354331
0.359999
0.365384
0.370507
0.375389
0.38005
0.384507
0.388779
0.39288
0.396826
0.400631
0.40431
0.407874
0.411334
0.4147
0.41798
0.421182
0.424312
0.427376
0.430381
0.433332
0.436234
0.43909
0.441904
0.444678
0.447416
0.450119
0.452789
0.455428
0.458035
0.46061
0.463153
0.465664
0.468141
0.470583
0.47299
0.475361
0.477694
0.47999
0.482248
0.484466
0.486647
0.488789
0.490893
0.49296
0.494992
0.496989
0.498953
0.500886
0.502788
0.504661
0.506506
0.508325
0.51012
0.511891
0.513639
0.515366
0.517072
0.518758
0.520426
0.522076
0.523709
0.525325
0.526924
0.528507
0.530074
0.531625
0.53316
0.534677
0.536179
0.537663
0.53913
0.540578
0.542008
0.543419
0.544809
0.546177
0.547524
0.548848
0.550149
0.551425
0.552676
0.553901
0.5551
0.556273
0.557419
0.558541
0.559638
0.560713
0.561768
0.562804
0.563826
0.564837
0.565838
0.566833
0.567821
0.568803
0.569784
0.570774
0.571799
0.572898
0.574131
0.575579
0.577337
0.579476
0.581949
0.584375
0.586144
0.58729
0.587952
0.588264
0.588447
0.58851
0.588476
0.588398
0.588297
0.588158
0.587955
0.587675
0.587333
0.586966
0.586623
0.586361
0.586242
0.586352
0.586836
0.588058
0.591545
0.200004
0.20001
0.20008
0.200661
0.202997
0.208308
0.216516
0.226587
0.237489
0.248554
0.259422
0.269919
0.279968
0.289541
0.298635
0.30726
0.315431
0.323169
0.330494
0.33743
0.344
0.350225
0.356128
0.361733
0.367059
0.372128
0.376959
0.381572
0.385985
0.390214
0.394275
0.398183
0.401953
0.405597
0.409128
0.412556
0.415891
0.41914
0.422312
0.425412
0.428447
0.431424
0.434347
0.437221
0.440051
0.44284
0.445592
0.448308
0.450991
0.453643
0.456265
0.458857
0.461419
0.463951
0.466452
0.46892
0.471356
0.473757
0.476124
0.478453
0.480746
0.483
0.485216
0.487394
0.489533
0.491635
0.4937
0.495729
0.497723
0.499684
0.501613
0.503512
0.505382
0.507224
0.50904
0.510831
0.512599
0.514344
0.516068
0.517771
0.519455
0.521121
0.522769
0.524401
0.526016
0.527616
0.5292
0.530769
0.532322
0.53386
0.535383
0.536889
0.538381
0.539856
0.541315
0.542757
0.544181
0.545588
0.546976
0.548345
0.549694
0.551024
0.552333
0.553623
0.554893
0.556144
0.557378
0.558595
0.559799
0.560993
0.562181
0.563369
0.564563
0.565771
0.567001
0.568263
0.569564
0.570909
0.572299
0.573725
0.575199
0.576763
0.578502
0.580545
0.583076
0.586327
0.59052
0.595675
0.600751
0.60365
0.605274
0.606109
0.606415
0.606341
0.60588
0.605084
0.604188
0.603267
0.602254
0.601045
0.599589
0.597937
0.596181
0.594435
0.592813
0.591414
0.590337
0.58973
0.589948
0.592509
0.200061
0.20017
0.200641
0.202302
0.206296
0.213051
0.221975
0.232136
0.242791
0.253482
0.263958
0.274089
0.283813
0.293104
0.301955
0.310371
0.318363
0.325945
0.333134
0.33995
0.346413
0.352543
0.35836
0.363884
0.369136
0.374135
0.378901
0.383453
0.387807
0.39198
0.395988
0.399846
0.403567
0.407166
0.410652
0.414037
0.417329
0.420537
0.423666
0.426726
0.429721
0.432659
0.435544
0.438382
0.441178
0.443934
0.446654
0.449341
0.451998
0.454626
0.457227
0.459801
0.462347
0.464865
0.467354
0.469813
0.47224
0.474635
0.476996
0.479322
0.48161
0.483862
0.486075
0.488249
0.490385
0.492484
0.494545
0.49657
0.49856
0.500516
0.502441
0.504335
0.5062
0.508037
0.509848
0.511634
0.513396
0.515136
0.516856
0.518555
0.520235
0.521897
0.523543
0.525173
0.526787
0.528386
0.52997
0.531541
0.533096
0.534638
0.536165
0.537678
0.539177
0.540662
0.542133
0.543589
0.54503
0.546456
0.547866
0.54926
0.55064
0.552004
0.553353
0.554689
0.556013
0.557326
0.558631
0.559934
0.561237
0.562548
0.563876
0.56523
0.566626
0.56808
0.569616
0.57126
0.573045
0.574997
0.577109
0.579301
0.581543
0.583895
0.586503
0.589596
0.593493
0.59862
0.605452
0.614409
0.623029
0.625835
0.62728
0.628021
0.628305
0.627955
0.626839
0.624891
0.622917
0.621084
0.619156
0.616835
0.61396
0.610661
0.607123
0.603567
0.600207
0.597207
0.594696
0.592821
0.591924
0.593508
0.200722
0.201326
0.20287
0.206181
0.211805
0.219547
0.22874
0.238706
0.248953
0.259177
0.269198
0.278917
0.288279
0.297257
0.305838
0.314021
0.321811
0.329217
0.336253
0.342933
0.349274
0.355294
0.361009
0.36644
0.371604
0.376521
0.381209
0.385686
0.389969
0.394075
0.398018
0.401813
0.405475
0.409016
0.412447
0.415778
0.419016
0.422171
0.425248
0.428256
0.431201
0.434089
0.436926
0.439718
0.442469
0.445183
0.447865
0.450516
0.453141
0.455739
0.458314
0.460865
0.463392
0.465893
0.468369
0.470817
0.473236
0.475624
0.477979
0.4803
0.482586
0.484833
0.487043
0.489215
0.491347
0.493441
0.495498
0.497518
0.499502
0.501453
0.503371
0.505259
0.507117
0.508947
0.510751
0.51253
0.514286
0.51602
0.517732
0.519426
0.5211
0.522758
0.5244
0.526026
0.527638
0.529235
0.53082
0.532391
0.533949
0.535495
0.537027
0.538547
0.540055
0.541551
0.543035
0.544506
0.545966
0.547413
0.548848
0.550272
0.551685
0.553089
0.554484
0.555872
0.557257
0.558641
0.56003
0.56143
0.562849
0.564299
0.565793
0.567351
0.569001
0.570779
0.572738
0.574954
0.577528
0.580557
0.583995
0.587436
0.59074
0.594018
0.597524
0.601606
0.606728
0.613494
0.622643
0.635544
0.646121
0.646529
0.647589
0.648115
0.64843
0.648139
0.646826
0.643596
0.640707
0.638503
0.636287
0.633376
0.629316
0.624425
0.619026
0.61345
0.608108
0.603298
0.599201
0.595965
0.59391
0.594517
0.20344
0.204972
0.207907
0.212676
0.219304
0.227407
0.236463
0.246021
0.255759
0.265465
0.275004
0.284291
0.293275
0.301924
0.31022
0.318157
0.325732
0.332952
0.339822
0.346356
0.352564
0.358463
0.364067
0.369394
0.37446
0.379283
0.383881
0.388272
0.392472
0.396498
0.400365
0.404088
0.407681
0.411154
0.414519
0.417784
0.420958
0.424049
0.427063
0.430008
0.432891
0.435718
0.438497
0.441232
0.443929
0.446592
0.449226
0.451834
0.454419
0.456982
0.459526
0.46205
0.464554
0.467036
0.469497
0.471933
0.474342
0.476724
0.479074
0.481391
0.483673
0.485918
0.488126
0.490294
0.492423
0.494512
0.496563
0.498577
0.500555
0.502498
0.504408
0.506287
0.508137
0.509958
0.511753
0.513524
0.515272
0.516997
0.518702
0.520388
0.522055
0.523706
0.525342
0.526964
0.528572
0.530167
0.53175
0.533322
0.534883
0.536432
0.53797
0.539497
0.541015
0.542523
0.544021
0.54551
0.54699
0.548461
0.549924
0.551381
0.552831
0.554278
0.555724
0.557171
0.558623
0.560087
0.56157
0.56308
0.564631
0.56624
0.56793
0.569735
0.571702
0.573904
0.576451
0.57952
0.583376
0.588321
0.594212
0.599414
0.603822
0.607813
0.611844
0.616395
0.62201
0.629353
0.639223
0.654351
0.659538
0.670674
0.68253
0.702276
0.718464
0.711515
0.68919
0.652111
0.649912
0.649021
0.648056
0.646166
0.642193
0.636718
0.630275
0.622975
0.615727
0.609145
0.603507
0.598963
0.59581
0.595506
0.209327
0.211736
0.215674
0.221207
0.228142
0.236126
0.244791
0.253831
0.263019
0.272196
0.281252
0.290109
0.298716
0.307035
0.315046
0.322733
0.330091
0.337118
0.343819
0.3502
0.356271
0.362043
0.367529
0.372743
0.377702
0.382423
0.386922
0.391216
0.395323
0.399259
0.40304
0.40668
0.410193
0.413589
0.416877
0.420067
0.423165
0.426181
0.42912
0.431991
0.4348
0.437555
0.440264
0.442931
0.445563
0.448165
0.450742
0.453298
0.455835
0.458357
0.460864
0.463356
0.465834
0.468295
0.470738
0.473161
0.475562
0.477936
0.480282
0.482597
0.484877
0.487121
0.489326
0.491492
0.493617
0.495702
0.497747
0.499754
0.501723
0.503657
0.505557
0.507426
0.509265
0.511076
0.512861
0.514622
0.516359
0.518074
0.519769
0.521445
0.523104
0.524746
0.526375
0.52799
0.529593
0.531185
0.532766
0.534337
0.5359
0.537453
0.538997
0.540531
0.542059
0.543579
0.545093
0.546601
0.548103
0.5496
0.551094
0.552586
0.554078
0.555572
0.557073
0.558584
0.560111
0.561663
0.563249
0.564882
0.566582
0.568373
0.570292
0.572392
0.574752
0.577501
0.580846
0.585143
0.590991
0.599208
0.60955
0.616494
0.621407
0.625389
0.629173
0.633312
0.638313
0.644712
0.653099
0.668035
0.702437
0.798979
0.799974
0.8
0.798801
0.770832
0.766135
0.755815
0.740216
0.727864
0.705068
0.680646
0.648045
0.643902
0.638649
0.630506
0.621908
0.614015
0.607193
0.601598
0.597527
0.596447
0.217945
0.22084
0.225188
0.230875
0.237667
0.245278
0.253441
0.261931
0.270577
0.279246
0.287841
0.296288
0.304532
0.312535
0.320267
0.327711
0.334855
0.341693
0.348226
0.354455
0.360387
0.36603
0.371395
0.376494
0.381341
0.385951
0.390342
0.394531
0.398535
0.402372
0.406057
0.409605
0.413028
0.416337
0.419539
0.422642
0.425655
0.428584
0.431436
0.434219
0.436942
0.439613
0.442238
0.444825
0.44738
0.44991
0.452419
0.454913
0.457395
0.459867
0.46233
0.464786
0.467234
0.469671
0.472095
0.474505
0.476896
0.479265
0.481608
0.483921
0.486201
0.488445
0.490651
0.492815
0.494938
0.497018
0.499057
0.501055
0.503015
0.504938
0.506826
0.508683
0.51051
0.512309
0.514082
0.51583
0.517555
0.519258
0.520941
0.522605
0.524252
0.525884
0.527503
0.52911
0.530706
0.532292
0.533871
0.535441
0.537005
0.538561
0.540112
0.541653
0.543191
0.544725
0.546255
0.547783
0.549309
0.550834
0.552361
0.553891
0.555427
0.556973
0.558534
0.560114
0.561723
0.56337
0.565069
0.566839
0.568706
0.570706
0.572891
0.575343
0.578186
0.581623
0.585999
0.591944
0.600617
0.613888
0.631812
0.6388
0.642909
0.645931
0.648662
0.65157
0.655008
0.659323
0.66495
0.679743
0.730728
0.788597
0.799676
0.799995
0.799996
0.799579
0.79927
0.798622
0.797656
0.796992
0.761661
0.750222
0.688696
0.662145
0.640568
0.633095
0.625123
0.617199
0.609932
0.603717
0.598995
0.597319
0.228063
0.231098
0.235454
0.240965
0.24741
0.25456
0.262207
0.270173
0.278315
0.286518
0.294689
0.302758
0.310667
0.318374
0.325846
0.333061
0.340002
0.346661
0.353032
0.359116
0.364915
0.370433
0.375679
0.380661
0.385393
0.38989
0.394167
0.398242
0.402134
0.405862
0.409442
0.412888
0.416212
0.419423
0.422529
0.425537
0.428452
0.431282
0.434034
0.436717
0.439339
0.44191
0.444437
0.44693
0.449394
0.451838
0.454268
0.456688
0.459104
0.461517
0.46393
0.466344
0.468756
0.471166
0.473571
0.475967
0.478349
0.480714
0.483056
0.485371
0.487654
0.489901
0.492109
0.494274
0.496396
0.498472
0.500504
0.502493
0.504441
0.506351
0.508226
0.510068
0.511881
0.513666
0.515425
0.517159
0.518869
0.520558
0.522227
0.523876
0.52551
0.527128
0.528735
0.53033
0.531917
0.533497
0.535071
0.536639
0.538203
0.539763
0.541319
0.542871
0.544419
0.545967
0.547514
0.549063
0.550614
0.55217
0.553732
0.555303
0.556887
0.558488
0.560113
0.561769
0.563466
0.565218
0.567042
0.568965
0.57102
0.573259
0.575757
0.578627
0.582048
0.586315
0.591941
0.599896
0.61207
0.631777
0.659838
0.664002
0.666892
0.668618
0.669797
0.670911
0.672178
0.673702
0.675779
0.693543
0.759769
0.796008
0.799877
0.799998
0.8
0.799995
0.799989
0.799972
0.799952
0.799944
0.798577
0.797944
0.788355
0.669131
0.641032
0.63412
0.626746
0.619132
0.611829
0.60533
0.600206
0.598117
0.238653
0.241639
0.245823
0.251035
0.257084
0.26378
0.270951
0.278449
0.286146
0.293937
0.301734
0.309467
0.317077
0.324518
0.331755
0.338762
0.345519
0.352014
0.35824
0.364191
0.369867
0.37527
0.380403
0.385275
0.389895
0.394276
0.398434
0.402388
0.40616
0.409769
0.413233
0.416566
0.419781
0.422886
0.425886
0.428787
0.431594
0.434313
0.436951
0.439517
0.442022
0.444476
0.446888
0.449269
0.451627
0.453969
0.456303
0.458636
0.460972
0.463316
0.46567
0.468033
0.470406
0.472786
0.475169
0.477551
0.479926
0.482289
0.484633
0.486953
0.489243
0.491498
0.493712
0.495882
0.498005
0.500079
0.502105
0.504083
0.506018
0.507912
0.509771
0.511596
0.513392
0.51516
0.516903
0.518621
0.520316
0.521988
0.523639
0.525271
0.526887
0.528489
0.53008
0.531662
0.533237
0.534807
0.536374
0.537939
0.539502
0.541064
0.542626
0.544188
0.545746
0.547308
0.548875
0.550447
0.552026
0.553614
0.555215
0.556831
0.558467
0.56013
0.561825
0.563564
0.565358
0.567226
0.569191
0.571285
0.573557
0.576074
0.578937
0.582298
0.586396
0.59162
0.598663
0.608857
0.624733
0.650294
0.682487
0.712193
0.73893
0.774222
0.793854
0.797164
0.788145
0.772989
0.721436
0.738206
0.789674
0.79976
0.799995
0.8
0.8
0.8
0.8
0.799999
0.799999
0.799999
0.799974
0.79996
0.799568
0.647522
0.640931
0.634684
0.627449
0.620269
0.613115
0.606537
0.601197
0.59885
0.249115
0.251978
0.255939
0.260842
0.266522
0.272819
0.279584
0.286686
0.294009
0.301453
0.308934
0.31638
0.323733
0.330945
0.337979
0.344805
0.351404
0.357758
0.363859
0.369698
0.375271
0.380575
0.385612
0.390385
0.394901
0.39917
0.403208
0.407036
0.410677
0.414153
0.417487
0.420695
0.423791
0.426779
0.429665
0.43245
0.435136
0.437729
0.440236
0.442668
0.445036
0.447352
0.449629
0.451877
0.454107
0.456328
0.458548
0.460775
0.463016
0.465277
0.467559
0.469864
0.472191
0.474536
0.476896
0.479264
0.481634
0.483998
0.486348
0.488679
0.490982
0.49325
0.495477
0.497658
0.499796
0.501882
0.503908
0.505873
0.50779
0.509664
0.5115
0.513304
0.51508
0.516829
0.518552
0.520252
0.521927
0.523579
0.52521
0.526821
0.528416
0.529997
0.531567
0.53313
0.53469
0.536247
0.537805
0.539364
0.540926
0.54249
0.544058
0.545629
0.5472
0.548777
0.550364
0.551961
0.55357
0.555194
0.556837
0.558502
0.560196
0.561925
0.563698
0.565528
0.567431
0.56943
0.571554
0.573849
0.576373
0.579217
0.582506
0.586433
0.591293
0.597573
0.606161
0.618777
0.638551
0.669585
0.700264
0.752139
0.794226
0.799921
0.8
0.799991
0.799395
0.799079
0.799255
0.796883
0.7996
0.799987
0.8
0.8
0.8
0.8
0.8
0.8
0.8
0.8
0.8
0.8
0.783099
0.646981
0.64101
0.63513
0.628092
0.621027
0.614027
0.60746
0.602021
0.599532
0.259152
0.261879
0.265629
0.270263
0.275638
0.281612
0.288053
0.294841
0.301867
0.309035
0.316262
0.323478
0.330622
0.337648
0.344516
0.351196
0.357668
0.363912
0.369918
0.375674
0.381172
0.386408
0.391376
0.396074
0.400504
0.404674
0.408595
0.412289
0.415782
0.419107
0.422291
0.425358
0.428321
0.431184
0.433947
0.436606
0.43916
0.441612
0.443968
0.446242
0.448447
0.4506
0.452715
0.454804
0.45688
0.458954
0.461034
0.463133
0.465258
0.467416
0.469611
0.471846
0.474119
0.476425
0.47876
0.481114
0.483481
0.48585
0.488214
0.490562
0.492886
0.495178
0.497429
0.49965
0.501818
0.503922
0.505957
0.507921
0.509818
0.511667
0.513477
0.515255
0.517006
0.518732
0.520434
0.522111
0.523764
0.525392
0.526998
0.528582
0.530148
0.5317
0.533242
0.53478
0.536316
0.537855
0.539399
0.540949
0.542507
0.544071
0.545644
0.547224
0.548813
0.550406
0.552013
0.553636
0.555277
0.556939
0.558627
0.560345
0.562102
0.563905
0.565766
0.567701
0.569731
0.571884
0.574199
0.576732
0.579558
0.582784
0.586563
0.591121
0.596805
0.604204
0.614425
0.629645
0.653634
0.690196
0.71352
0.78063
0.799858
0.799999
0.8
0.8
0.799996
0.799991
0.799988
0.799939
0.799989
0.8
0.8
0.8
0.8
0.8
0.8
0.8
0.8
0.8
0.8
0.799495
0.730188
0.647248
0.64129
0.635525
0.628672
0.62169
0.614721
0.608198
0.60273
0.600179
0.268631
0.271236
0.274815
0.279242
0.284388
0.290126
0.296332
0.302894
0.309705
0.316672
0.323714
0.330759
0.337748
0.344634
0.35138
0.357955
0.364339
0.370513
0.376463
0.382179
0.387648
0.392859
0.397804
0.402472
0.406856
0.410952
0.414764
0.418314
0.421636
0.424777
0.427782
0.430683
0.433496
0.436224
0.438856
0.441383
0.443793
0.446085
0.448266
0.450352
0.45236
0.454313
0.45623
0.458125
0.460013
0.461904
0.463812
0.46575
0.467729
0.46976
0.471848
0.473997
0.476205
0.478465
0.480771
0.483112
0.485479
0.48786
0.490244
0.49262
0.494978
0.497305
0.499624
0.501899
0.504114
0.506255
0.508308
0.510268
0.512138
0.513954
0.51573
0.517475
0.519197
0.520898
0.522577
0.524232
0.52586
0.527461
0.529036
0.530587
0.532117
0.533632
0.535137
0.536639
0.538145
0.539658
0.541182
0.542719
0.544269
0.545832
0.547408
0.548997
0.550599
0.552208
0.553836
0.555487
0.557164
0.55887
0.56061
0.562392
0.564224
0.566117
0.568087
0.570152
0.57234
0.574686
0.577238
0.580061
0.583244
0.586909
0.59123
0.596458
0.602989
0.61152
0.623416
0.641405
0.670039
0.713488
0.725023
0.793561
0.799914
0.799999
0.8
0.8
0.8
0.8
0.8
0.799999
0.8
0.8
0.8
0.8
0.8
0.8
0.8
0.8
0.8
0.8
0.79998
0.796756
0.710022
0.647599
0.641608
0.635874
0.629146
0.622269
0.615361
0.608839
0.603362
0.600804
0.277497
0.280008
0.283467
0.287756
0.292758
0.298351
0.304417
0.310845
0.317529
0.324376
0.331304
0.338242
0.345134
0.351934
0.358606
0.365123
0.371467
0.377621
0.383571
0.389306
0.394812
0.400074
0.405075
0.409793
0.414326
0.41853
0.422246
0.425625
0.428721
0.431608
0.434365
0.437045
0.439671
0.442242
0.444734
0.447116
0.449362
0.451464
0.453426
0.455269
0.457019
0.45871
0.460367
0.462009
0.463651
0.465305
0.466986
0.468711
0.470498
0.472361
0.47431
0.476349
0.478474
0.480678
0.48295
0.485278
0.487648
0.490047
0.492462
0.49488
0.497287
0.499698
0.502098
0.504463
0.50677
0.508991
0.511094
0.513061
0.514895
0.516663
0.518388
0.520088
0.521772
0.523442
0.525095
0.526724
0.528324
0.529893
0.53143
0.532937
0.534418
0.53588
0.537332
0.538784
0.540244
0.54172
0.543215
0.544732
0.546269
0.547827
0.549405
0.551003
0.55262
0.554253
0.555905
0.557587
0.559305
0.561063
0.562869
0.564731
0.566659
0.56867
0.57078
0.573016
0.575409
0.578
0.580844
0.584014
0.587607
0.591754
0.59664
0.602537
0.609886
0.619504
0.63306
0.653836
0.686917
0.736184
0.7816
0.798987
0.799989
0.8
0.8
0.8
0.8
0.8
0.8
0.8
0.8
0.8
0.8
0.8
0.8
0.8
0.8
0.8
0.8
0.8
0.799958
0.796215
0.689033
0.647754
0.641831
0.63615
0.629546
0.62277
0.615933
0.609448
0.603981
0.601425
0.285738
0.288188
0.29158
0.295807
0.300752
0.306298
0.312325
0.318718
0.32537
0.332183
0.339073
0.345973
0.352829
0.359598
0.366252
0.372767
0.379131
0.38533
0.391356
0.397199
0.402847
0.408282
0.413672
0.419197
0.424587
0.429652
0.434048
0.437151
0.439792
0.442122
0.444323
0.446512
0.448741
0.451003
0.453244
0.455383
0.457352
0.459121
0.460693
0.462095
0.463379
0.464603
0.465813
0.467033
0.468276
0.469552
0.470875
0.47227
0.473761
0.475371
0.477113
0.47899
0.480997
0.483121
0.485346
0.487656
0.490031
0.492455
0.494912
0.497388
0.499867
0.502399
0.504939
0.507471
0.509968
0.51238
0.514628
0.516636
0.518416
0.520106
0.521749
0.523375
0.525002
0.526631
0.528251
0.529849
0.531414
0.53294
0.534425
0.535869
0.537276
0.538656
0.540023
0.541392
0.542778
0.544191
0.545638
0.547119
0.548634
0.550181
0.551757
0.55336
0.554991
0.556651
0.558327
0.560047
0.561818
0.563645
0.565538
0.567508
0.569568
0.571738
0.57404
0.576502
0.57916
0.582059
0.585255
0.588821
0.592856
0.597494
0.602925
0.609438
0.617527
0.628158
0.643347
0.666867
0.703619
0.754079
0.793306
0.799617
0.799996
0.8
0.8
0.8
0.8
0.8
0.8
0.8
0.8
0.8
0.8
0.8
0.8
0.8
0.8
0.8
0.8
0.799999
0.799948
0.797121
0.655429
0.647409
0.641903
0.636365
0.629905
0.623234
0.616474
0.610037
0.604598
0.60205
0.293356
0.295778
0.299163
0.303405
0.30839
0.313996
0.320097
0.326567
0.333289
0.34016
0.347095
0.354028
0.360912
0.367713
0.37441
0.38099
0.387448
0.393783
0.399993
0.406081
0.412039
0.418194
0.424859
0.431857
0.439242
0.446518
0.453145
0.456528
0.458375
0.459554
0.46059
0.461764
0.463222
0.464967
0.466868
0.468711
0.470288
0.471518
0.472395
0.472965
0.47333
0.473635
0.47398
0.474403
0.474908
0.475495
0.476174
0.476977
0.477946
0.479115
0.480503
0.48211
0.483921
0.485913
0.48806
0.490333
0.492707
0.495159
0.497671
0.500225
0.50284
0.505537
0.508304
0.51114
0.514027
0.516894
0.519543
0.521683
0.523375
0.524914
0.526397
0.527886
0.529413
0.530979
0.532559
0.534121
0.535641
0.537108
0.538515
0.53986
0.541147
0.542386
0.543599
0.544818
0.546068
0.547367
0.548724
0.55014
0.551611
0.55313
0.554693
0.556296
0.557939
0.559623
0.56134
0.563103
0.564938
0.566855
0.568865
0.570981
0.57322
0.575604
0.578157
0.58091
0.583898
0.587162
0.590753
0.594737
0.599209
0.604298
0.6102
0.617227
0.625949
0.637529
0.654386
0.680656
0.720121
0.767793
0.797751
0.799942
0.799999
0.8
0.8
0.8
0.8
0.8
0.8
0.8
0.8
0.8
0.8
0.8
0.8
0.8
0.8
0.8
0.8
0.799998
0.799873
0.792123
0.65463
0.647402
0.642082
0.636624
0.630282
0.623702
0.617013
0.610626
0.605219
0.602681
0.300376
0.302817
0.306259
0.310596
0.315704
0.321447
0.327765
0.33448
0.341391
0.348421
0.355486
0.362527
0.369507
0.376406
0.383218
0.389944
0.396597
0.403193
0.409753
0.416296
0.423083
0.431075
0.440205
0.450464
0.462077
0.473086
0.484505
0.488438
0.488997
0.487757
0.486413
0.485591
0.485678
0.486744
0.488721
0.49176
0.492978
0.493433
0.493108
0.492066
0.490518
0.488904
0.487496
0.486364
0.485465
0.484749
0.484204
0.483877
0.483849
0.484187
0.484919
0.486033
0.487493
0.48925
0.491252
0.49345
0.495805
0.498283
0.500859
0.503517
0.506321
0.509273
0.512403
0.515759
0.519387
0.523241
0.52689
0.529278
0.530812
0.53203
0.53318
0.534391
0.535736
0.537219
0.538776
0.540317
0.541794
0.54319
0.544492
0.54569
0.546779
0.547769
0.548697
0.549631
0.550622
0.551705
0.552894
0.554187
0.555572
0.557036
0.558568
0.560158
0.561806
0.563514
0.565286
0.567095
0.56901
0.571041
0.5732
0.575503
0.577968
0.580618
0.58348
0.586582
0.589951
0.59362
0.59762
0.602006
0.606858
0.612306
0.618557
0.625966
0.635216
0.647743
0.666446
0.695637
0.736698
0.777857
0.799262
0.799995
0.8
0.8
0.8
0.8
0.8
0.8
0.8
0.8
0.8
0.8
0.8
0.8
0.8
0.8
0.8
0.8
0.8
0.799997
0.799611
0.760827
0.654901
0.647713
0.642416
0.63698
0.630718
0.624208
0.617576
0.611228
0.605847
0.603318
0.306835
0.30936
0.312953
0.317502
0.322867
0.328894
0.335459
0.342427
0.349541
0.356954
0.364419
0.371649
0.378796
0.385866
0.392877
0.399858
0.406846
0.413891
0.421047
0.428382
0.437639
0.449133
0.463252
0.477973
0.494725
0.506751
0.521068
0.523783
0.523502
0.519171
0.515159
0.512206
0.511036
0.512037
0.51687
0.523881
0.526804
0.526951
0.525485
0.522305
0.517591
0.512721
0.508486
0.504968
0.501942
0.49919
0.496626
0.494331
0.492512
0.491347
0.490903
0.49115
0.492002
0.493355
0.495107
0.49717
0.499476
0.501971
0.504622
0.507413
0.510442
0.513731
0.517367
0.521486
0.526299
0.531877
0.537445
0.539891
0.541133
0.541685
0.542222
0.542949
0.544028
0.545481
0.547464
0.549277
0.55076
0.552106
0.553303
0.554321
0.555129
0.555709
0.556115
0.556522
0.557036
0.557728
0.558624
0.559708
0.560951
0.562322
0.563794
0.565351
0.566988
0.568708
0.570522
0.572426
0.574419
0.576575
0.578905
0.581425
0.584153
0.587112
0.590326
0.593818
0.597605
0.601696
0.606093
0.610823
0.615955
0.621623
0.628072
0.635731
0.645454
0.659052
0.680015
0.712563
0.753863
0.784814
0.799647
0.799997
0.8
0.8
0.8
0.8
0.8
0.8
0.8
0.8
0.8
0.8
0.8
0.8
0.8
0.8
0.8
0.8
0.8
0.799926
0.795075
0.725219
0.655319
0.648157
0.642863
0.63744
0.631237
0.624779
0.618184
0.611858
0.606487
0.603962
0.312756
0.315437
0.319288
0.32419
0.329982
0.336469
0.34347
0.350817
0.358259
0.365856
0.373534
0.381482
0.389021
0.396364
0.403689
0.411074
0.418602
0.426373
0.434518
0.444378
0.457615
0.475837
0.496698
0.512533
0.530554
0.536321
0.540911
0.564617
0.571497
0.532072
0.529622
0.52755
0.527016
0.529256
0.537897
0.549477
0.553053
0.555125
0.55467
0.551763
0.545122
0.537749
0.531626
0.526704
0.522324
0.517938
0.513301
0.508541
0.504199
0.500809
0.498608
0.497569
0.497533
0.498306
0.499705
0.501581
0.503816
0.506329
0.509072
0.512029
0.515316
0.518986
0.523191
0.528195
0.53449
0.542165
0.549674
0.551528
0.552405
0.551897
0.551698
0.55186
0.55272
0.554436
0.558457
0.561017
0.562821
0.564225
0.565423
0.566353
0.566909
0.566954
0.566467
0.565993
0.565711
0.565777
0.566231
0.567024
0.568081
0.569333
0.570727
0.57223
0.573831
0.575536
0.577372
0.579362
0.581442
0.583734
0.58626
0.589026
0.592044
0.595333
0.598914
0.602808
0.607024
0.611548
0.616317
0.62132
0.626616
0.632345
0.638843
0.64667
0.656925
0.671926
0.695882
0.732341
0.772096
0.789575
0.799785
0.799998
0.8
0.8
0.8
0.8
0.8
0.8
0.8
0.8
0.8
0.8
0.8
0.8
0.8
0.8
0.8
0.799996
0.79989
0.797835
0.778747
0.695644
0.655561
0.648605
0.643385
0.638004
0.631859
0.625437
0.618858
0.612526
0.607139
0.604612
0.318166
0.321086
0.325327
0.330767
0.337211
0.344396
0.352048
0.359936
0.367835
0.375762
0.383724
0.39175
0.400019
0.408274
0.416101
0.424109
0.432483
0.44143
0.451252
0.466507
0.486481
0.513157
0.536601
0.545694
0.552505
0.673083
0.787101
0.794583
0.783915
0.765314
0.585841
0.539776
0.538877
0.542649
0.557622
0.564778
0.609479
0.723684
0.723982
0.605516
0.555183
0.54993
0.545999
0.542979
0.53995
0.536136
0.530994
0.524449
0.517493
0.511558
0.507308
0.50478
0.503736
0.50387
0.504901
0.506602
0.508798
0.511364
0.51423
0.517383
0.520913
0.524907
0.529575
0.535328
0.543054
0.552032
0.55807
0.57222
0.583427
0.56038
0.559788
0.559485
0.56031
0.563539
0.572356
0.577169
0.579072
0.58069
0.582754
0.583848
0.584388
0.58383
0.581446
0.579258
0.577494
0.576468
0.576246
0.576654
0.577495
0.578621
0.579929
0.581355
0.582871
0.584497
0.586305
0.58834
0.590622
0.593043
0.595726
0.598667
0.601879
0.605385
0.609223
0.613441
0.618084
0.623152
0.628358
0.633639
0.639024
0.644648
0.6511
0.659175
0.670287
0.68737
0.715296
0.754621
0.787829
0.799547
0.799994
0.8
0.8
0.8
0.8
0.8
0.8
0.8
0.8
0.8
0.8
0.8
0.8
0.8
0.8
0.8
0.8
0.799991
0.799654
0.794927
0.761211
0.662841
0.655316
0.649025
0.643997
0.638702
0.632617
0.626214
0.619594
0.613244
0.607824
0.605273
0.323101
0.326354
0.331151
0.337388
0.344816
0.353038
0.361617
0.370244
0.378738
0.387118
0.395429
0.403704
0.412171
0.421339
0.430727
0.439744
0.449488
0.460462
0.47607
0.502127
0.526693
0.554964
0.56361
0.652914
0.784152
0.797938
0.799847
0.799948
0.799859
0.799645
0.793324
0.61246
0.555719
0.560705
0.579662
0.73636
0.798911
0.79957
0.7992
0.791726
0.596379
0.557713
0.556059
0.555461
0.554608
0.552601
0.548382
0.540758
0.530673
0.521963
0.515727
0.511858
0.509953
0.509585
0.51038
0.512033
0.514304
0.517017
0.520059
0.523419
0.527113
0.531248
0.536069
0.542183
0.551087
0.560366
0.638309
0.794225
0.795941
0.782346
0.622742
0.568912
0.568786
0.573062
0.583142
0.659578
0.789476
0.771482
0.797713
0.799314
0.78715
0.646122
0.589542
0.587943
0.586277
0.585233
0.58518
0.585821
0.586887
0.588199
0.589641
0.591129
0.592617
0.594141
0.595899
0.597969
0.600356
0.602954
0.605789
0.608882
0.612255
0.61596
0.620077
0.624739
0.630153
0.636528
0.642569
0.648348
0.653847
0.659113
0.665644
0.674676
0.687828
0.708418
0.741477
0.777609
0.796128
0.799925
0.799999
0.8
0.8
0.8
0.8
0.8
0.8
0.8
0.8
0.8
0.8
0.8
0.8
0.8
0.8
0.8
0.8
0.799995
0.799647
0.796001
0.76563
0.662648
0.65564
0.649706
0.644815
0.639606
0.633476
0.627094
0.620467
0.614068
0.608571
0.60595
0.3276
0.331287
0.336861
0.344284
0.35323
0.363029
0.372917
0.382526
0.391757
0.400686
0.409426
0.418106
0.426997
0.436482
0.44744
0.45917
0.471453
0.486522
0.520519
0.559589
0.576812
0.58776
0.768006
0.796565
0.799738
0.799977
0.799999
0.8
0.799999
0.799997
0.79992
0.775353
0.66925
0.585331
0.638111
0.783912
0.799804
0.799997
0.799996
0.799931
0.787916
0.584689
0.64946
0.695149
0.678738
0.614618
0.576721
0.544509
0.535601
0.527826
0.521677
0.517555
0.515404
0.514939
0.515811
0.517689
0.520274
0.523315
0.526607
0.530151
0.533878
0.537866
0.542332
0.548143
0.557173
0.6968
0.796589
0.799939
0.799975
0.799768
0.793643
0.605164
0.574859
0.584188
0.595706
0.684174
0.797458
0.799697
0.799979
0.799992
0.799925
0.798568
0.796023
0.659812
0.592446
0.591735
0.592513
0.593844
0.595443
0.597165
0.598915
0.600596
0.6021
0.603415
0.605113
0.607265
0.609801
0.612655
0.615713
0.619054
0.622711
0.626786
0.631429
0.636953
0.644057
0.654108
0.661359
0.668001
0.673841
0.680693
0.690488
0.705734
0.729386
0.759507
0.784503
0.796223
0.799492
0.799992
0.8
0.8
0.8
0.8
0.8
0.8
0.8
0.8
0.8
0.8
0.8
0.8
0.8
0.8
0.8
0.8
0.8
0.799997
0.799953
0.799605
0.795603
0.663484
0.656492
0.650717
0.64586
0.640628
0.634572
0.6282
0.621529
0.615027
0.609393
0.606644
0.331696
0.335911
0.342546
0.351779
0.363205
0.375573
0.387357
0.398256
0.408356
0.417896
0.427142
0.436356
0.445884
0.456144
0.467823
0.483154
0.502377
0.528712
0.592124
0.610863
0.73565
0.788515
0.799232
0.799952
0.799997
0.8
0.8
0.8
0.8
0.8
0.799998
0.799604
0.756098
0.601692
0.691146
0.793493
0.799918
0.799999
0.8
0.799999
0.680336
0.614198
0.746837
0.796527
0.793283
0.669353
0.602067
0.547504
0.538598
0.531473
0.525753
0.521868
0.519935
0.519796
0.521165
0.523697
0.527021
0.531066
0.534652
0.538223
0.54177
0.545387
0.549277
0.554231
0.56223
0.735892
0.798267
0.799978
0.8
0.799997
0.799849
0.627395
0.600327
0.666905
0.666995
0.719835
0.798455
0.799989
0.8
0.8
0.8
0.799995
0.799986
0.774711
0.608925
0.60611
0.60654
0.607898
0.609605
0.611433
0.613266