/*--------------------------------*- C++ -*----------------------------------*\
| =========                 |                                                 |
| \\      /  F ield         | OpenFOAM: The Open Source CFD Toolbox           |
|  \\    /   O peration     | Version:  2.1.0                                 |
|   \\  /    A nd           | Web:      www.OpenFOAM.org                      |
|    \\/     M anipulation  |                                                 |
\*---------------------------------------------------------------------------*/
FoamFile
{
    version     2.0;
    format      ascii;
    class       volScalarField;
    location    "44165";
    object      sw;
}
// * * * * * * * * * * * * * * * * * * * * * * * * * * * * * * * * * * * * * //

dimensions      [0 0 0 0 0 0 0];

internalField   nonuniform List<scalar> 
15000
(
0.8
0.799997
0.799996
0.799934
0.799213
0.796255
0.789879
0.780592
0.769709
0.758293
0.746949
0.735966
0.725468
0.715497
0.706056
0.697132
0.688702
0.68074
0.67322
0.666114
0.659395
0.653036
0.647013
0.6413
0.635874
0.630714
0.625797
0.621105
0.616617
0.612318
0.608191
0.604219
0.60039
0.59669
0.593105
0.589625
0.58624
0.582941
0.57972
0.576572
0.573489
0.570467
0.567498
0.56458
0.561708
0.558878
0.556088
0.553335
0.550618
0.547935
0.545285
0.542667
0.540082
0.53753
0.535012
0.532528
0.53008
0.527668
0.525293
0.522955
0.520657
0.518396
0.516175
0.513993
0.511849
0.509743
0.507673
0.50564
0.503641
0.501676
0.499742
0.497838
0.495964
0.494117
0.492296
0.4905
0.488728
0.486979
0.485251
0.483543
0.481855
0.480187
0.478536
0.476904
0.475288
0.473689
0.472107
0.470542
0.468994
0.467463
0.465949
0.464453
0.462975
0.461515
0.460076
0.458656
0.457258
0.455881
0.454528
0.4532
0.451897
0.45062
0.449372
0.448152
0.446964
0.445807
0.444682
0.443592
0.442535
0.441513
0.440526
0.439574
0.438655
0.43777
0.436916
0.436092
0.435298
0.434531
0.43379
0.433072
0.43237
0.431674
0.430972
0.430245
0.429469
0.428623
0.427694
0.426707
0.425759
0.424976
0.424383
0.423956
0.423657
0.423357
0.423053
0.422742
0.422421
0.422086
0.421736
0.421367
0.420973
0.420544
0.420066
0.419521
0.418881
0.418101
0.41711
0.415763
0.413693
0.409364
0.799997
0.799994
0.799989
0.799818
0.798579
0.794668
0.787427
0.7777
0.766734
0.755424
0.744259
0.73347
0.723157
0.713352
0.704057
0.695259
0.686939
0.679072
0.671635
0.664601
0.657945
0.651642
0.645669
0.640001
0.634616
0.629493
0.624611
0.61995
0.615493
0.611221
0.60712
0.603174
0.599369
0.59569
0.592126
0.588666
0.5853
0.58202
0.578818
0.575688
0.572624
0.569619
0.566668
0.563766
0.56091
0.558096
0.555322
0.552584
0.549881
0.547211
0.544572
0.541965
0.53939
0.536847
0.534336
0.531859
0.529417
0.52701
0.524639
0.522306
0.52001
0.517752
0.515534
0.513353
0.511211
0.509107
0.50704
0.505008
0.503011
0.501047
0.499114
0.497212
0.495339
0.493494
0.491675
0.48988
0.488109
0.486361
0.484634
0.482928
0.481242
0.479574
0.477924
0.476291
0.474675
0.473076
0.471493
0.469926
0.468375
0.46684
0.465323
0.463821
0.462337
0.46087
0.459422
0.457992
0.456581
0.455191
0.453823
0.452476
0.451152
0.449851
0.448575
0.447324
0.446099
0.4449
0.443727
0.442581
0.441459
0.440362
0.439287
0.438232
0.437196
0.436174
0.435163
0.434162
0.433167
0.432179
0.431197
0.430216
0.429226
0.428201
0.427102
0.425869
0.424421
0.422663
0.420524
0.418051
0.415625
0.413856
0.41271
0.412048
0.411736
0.411553
0.41149
0.411524
0.411602
0.411703
0.411842
0.412045
0.412325
0.412667
0.413034
0.413377
0.413639
0.413758
0.413648
0.413164
0.411942
0.408455
0.799996
0.79999
0.79992
0.799339
0.797003
0.791692
0.783484
0.773413
0.762511
0.751446
0.740578
0.730081
0.720032
0.710459
0.701365
0.69274
0.684569
0.676831
0.669506
0.66257
0.656
0.649775
0.643872
0.638267
0.632941
0.627872
0.623041
0.618428
0.614015
0.609786
0.605725
0.601817
0.598047
0.594403
0.590872
0.587444
0.584109
0.58086
0.577688
0.574588
0.571553
0.568576
0.565653
0.562779
0.559949
0.55716
0.554408
0.551692
0.549009
0.546357
0.543735
0.541143
0.538581
0.536049
0.533548
0.53108
0.528644
0.526243
0.523876
0.521547
0.519254
0.517
0.514784
0.512606
0.510467
0.508365
0.5063
0.504271
0.502277
0.500316
0.498387
0.496488
0.494618
0.492776
0.49096
0.489169
0.487401
0.485656
0.483932
0.482229
0.480545
0.478879
0.477231
0.475599
0.473984
0.472384
0.4708
0.469231
0.467678
0.46614
0.464617
0.463111
0.461619
0.460144
0.458685
0.457243
0.455819
0.454412
0.453024
0.451655
0.450306
0.448976
0.447667
0.446377
0.445107
0.443856
0.442622
0.441405
0.440201
0.439007
0.437819
0.436631
0.435437
0.434229
0.432999
0.431737
0.430436
0.429091
0.427701
0.426275
0.424801
0.423237
0.421498
0.419455
0.416924
0.413673
0.40948
0.404325
0.399249
0.39635
0.394726
0.393891
0.393585
0.393659
0.39412
0.394916
0.395812
0.396733
0.397746
0.398955
0.400411
0.402063
0.403819
0.405565
0.407187
0.408586
0.409663
0.41027
0.410052
0.407491
0.799939
0.79983
0.799359
0.797698
0.793704
0.786949
0.778025
0.767864
0.757209
0.746518
0.736042
0.725911
0.716187
0.706896
0.698045
0.689629
0.681637
0.674055
0.666866
0.66005
0.653587
0.647457
0.64164
0.636116
0.630864
0.625865
0.621099
0.616547
0.612193
0.60802
0.604012
0.600154
0.596433
0.592834
0.589348
0.585963
0.582671
0.579463
0.576334
0.573274
0.570279
0.567341
0.564456
0.561618
0.558822
0.556066
0.553346
0.550659
0.548002
0.545374
0.542773
0.540199
0.537653
0.535135
0.532646
0.530187
0.52776
0.525365
0.523004
0.520678
0.51839
0.516138
0.513925
0.511751
0.509615
0.507516
0.505455
0.50343
0.50144
0.499484
0.497559
0.495665
0.4938
0.491963
0.490152
0.488366
0.486604
0.484864
0.483144
0.481445
0.479765
0.478103
0.476457
0.474827
0.473213
0.471614
0.47003
0.468459
0.466904
0.465362
0.463835
0.462322
0.460823
0.459338
0.457867
0.456411
0.45497
0.453544
0.452134
0.45074
0.44936
0.447996
0.446647
0.445311
0.443987
0.442674
0.441369
0.440066
0.438763
0.437452
0.436124
0.43477
0.433374
0.43192
0.430384
0.42874
0.426955
0.425003
0.422891
0.420699
0.418457
0.416105
0.413497
0.410404
0.406507
0.40138
0.394548
0.385591
0.376971
0.374165
0.37272
0.371979
0.371695
0.372045
0.373161
0.375109
0.377083
0.378916
0.380844
0.383165
0.38604
0.389339
0.392877
0.396433
0.399793
0.402793
0.405304
0.407179
0.408076
0.406492
0.799278
0.798674
0.79713
0.793819
0.788195
0.780453
0.77126
0.761294
0.751047
0.740823
0.730802
0.721083
0.711721
0.702743
0.694162
0.685979
0.678189
0.670783
0.663747
0.657067
0.650726
0.644706
0.638991
0.63356
0.628396
0.623479
0.618791
0.614314
0.610031
0.605925
0.601982
0.598187
0.594525
0.590984
0.587553
0.584222
0.580984
0.577829
0.574752
0.571744
0.568799
0.565911
0.563074
0.560282
0.557531
0.554817
0.552135
0.549484
0.546859
0.544261
0.541686
0.539135
0.536608
0.534107
0.531631
0.529183
0.526764
0.524376
0.522021
0.5197
0.517414
0.515167
0.512957
0.510785
0.508653
0.506559
0.504502
0.502482
0.500498
0.498547
0.496629
0.494741
0.492883
0.491053
0.489249
0.48747
0.485714
0.48398
0.482268
0.480574
0.4789
0.477242
0.4756
0.473974
0.472362
0.470765
0.46918
0.467609
0.466051
0.464505
0.462973
0.461453
0.459945
0.458449
0.456965
0.455494
0.454034
0.452587
0.451152
0.449728
0.448315
0.446911
0.445516
0.444128
0.442743
0.441359
0.43997
0.43857
0.437151
0.435701
0.434207
0.432649
0.430999
0.429221
0.427262
0.425046
0.422472
0.419443
0.416005
0.412564
0.40926
0.405982
0.402476
0.398394
0.393272
0.386506
0.377357
0.364456
0.353879
0.353471
0.352411
0.351885
0.35157
0.351861
0.353174
0.356404
0.359293
0.361497
0.363713
0.366624
0.370684
0.375575
0.380974
0.38655
0.391892
0.396702
0.400799
0.404035
0.40609
0.405483
0.79656
0.795028
0.792093
0.787324
0.780696
0.772593
0.763537
0.753979
0.744241
0.734535
0.724996
0.715709
0.706725
0.698076
0.68978
0.681843
0.674268
0.667048
0.660178
0.653644
0.647436
0.641537
0.635933
0.630606
0.62554
0.620717
0.616119
0.611728
0.607528
0.603502
0.599635
0.595912
0.592319
0.588846
0.585481
0.582216
0.579042
0.575951
0.572937
0.569992
0.567109
0.564282
0.561503
0.558768
0.556071
0.553408
0.550774
0.548166
0.545581
0.543018
0.540474
0.53795
0.535446
0.532964
0.530503
0.528067
0.525658
0.523276
0.520926
0.518609
0.516327
0.514082
0.511874
0.509706
0.507577
0.505488
0.503437
0.501423
0.499445
0.497502
0.495592
0.493713
0.491863
0.490042
0.488247
0.486476
0.484728
0.483003
0.481298
0.479612
0.477945
0.476294
0.474658
0.473036
0.471428
0.469833
0.46825
0.466678
0.465117
0.463568
0.46203
0.460503
0.458985
0.457477
0.455979
0.45449
0.45301
0.451539
0.450076
0.448619
0.447169
0.445722
0.444276
0.442829
0.441377
0.439913
0.43843
0.43692
0.435369
0.43376
0.43207
0.430265
0.428298
0.426096
0.423549
0.42048
0.416624
0.411679
0.405788
0.400586
0.396178
0.392187
0.388156
0.383605
0.37799
0.370647
0.360777
0.345649
0.340462
0.329326
0.31747
0.297724
0.281536
0.288485
0.31081
0.347889
0.350088
0.350979
0.351944
0.353834
0.357807
0.363282
0.369725
0.377025
0.384273
0.390855
0.396493
0.401037
0.40419
0.404494
0.790673
0.788264
0.784326
0.778793
0.771858
0.763874
0.755209
0.746169
0.736981
0.727804
0.718748
0.709891
0.701284
0.692965
0.684954
0.677267
0.669909
0.662882
0.656181
0.6498
0.643729
0.637957
0.632471
0.627257
0.622298
0.617577
0.613078
0.608784
0.604677
0.600741
0.59696
0.59332
0.589807
0.586411
0.583123
0.579933
0.576835
0.573819
0.57088
0.568009
0.5652
0.562445
0.559736
0.557069
0.554437
0.551835
0.549258
0.546702
0.544165
0.541643
0.539136
0.536644
0.534166
0.531705
0.529262
0.526839
0.524438
0.522064
0.519718
0.517403
0.515123
0.512879
0.510674
0.508508
0.506383
0.504298
0.502253
0.500246
0.498277
0.496343
0.494443
0.492574
0.490735
0.488924
0.487139
0.485378
0.483641
0.481926
0.480231
0.478555
0.476896
0.475254
0.473625
0.47201
0.470407
0.468815
0.467234
0.465663
0.4641
0.462547
0.461003
0.459469
0.457941
0.456421
0.454907
0.453399
0.451897
0.4504
0.448906
0.447414
0.445922
0.444428
0.442927
0.441416
0.439889
0.438337
0.436751
0.435118
0.433418
0.431627
0.429708
0.427608
0.425248
0.422499
0.419154
0.414857
0.409009
0.400792
0.39045
0.383506
0.378593
0.374611
0.370827
0.366688
0.361687
0.355288
0.346901
0.331965
0.297563
0.201021
0.200026
0.2
0.201199
0.229168
0.233865
0.244185
0.259784
0.272136
0.294932
0.319354
0.351955
0.356098
0.361351
0.369494
0.378092
0.385985
0.392807
0.398402
0.402473
0.403553
0.782055
0.77916
0.774812
0.769125
0.762333
0.754722
0.746559
0.738069
0.729423
0.720754
0.712159
0.703712
0.695468
0.687465
0.679733
0.672289
0.665145
0.658307
0.651774
0.645545
0.639613
0.63397
0.628605
0.623506
0.618659
0.614049
0.609658
0.605469
0.601465
0.597628
0.593943
0.590395
0.586972
0.583663
0.580461
0.577358
0.574345
0.571416
0.568564
0.565781
0.563058
0.560387
0.557762
0.555175
0.55262
0.55009
0.547581
0.545087
0.542605
0.540133
0.53767
0.535214
0.532766
0.530329
0.527905
0.525495
0.523104
0.520735
0.518392
0.516079
0.513799
0.511555
0.509349
0.507185
0.505062
0.502982
0.500943
0.498945
0.496985
0.495062
0.493174
0.491317
0.48949
0.487691
0.485918
0.48417
0.482445
0.480742
0.479059
0.477395
0.475748
0.474116
0.472497
0.47089
0.469294
0.467708
0.466129
0.464559
0.462995
0.461439
0.459888
0.458347
0.456809
0.455275
0.453745
0.452217
0.450691
0.449166
0.447639
0.446109
0.444573
0.443027
0.441466
0.439886
0.438277
0.43663
0.434931
0.433161
0.431294
0.429294
0.427109
0.424657
0.421814
0.418377
0.414001
0.408056
0.399383
0.386112
0.368188
0.3612
0.357091
0.354069
0.351338
0.34843
0.344992
0.340677
0.33505
0.320257
0.269272
0.211403
0.200324
0.200005
0.200004
0.200421
0.20073
0.201378
0.202344
0.203008
0.238339
0.249778
0.311304
0.337855
0.359432
0.366905
0.374877
0.382801
0.390068
0.396283
0.401005
0.402681
0.771937
0.768902
0.764546
0.759035
0.75259
0.74544
0.737793
0.729827
0.721685
0.713482
0.705311
0.697242
0.689333
0.681626
0.674154
0.666939
0.659998
0.653339
0.646968
0.640884
0.635085
0.629567
0.624321
0.619339
0.614607
0.61011
0.605833
0.601758
0.597866
0.594138
0.590558
0.587112
0.583788
0.580577
0.577471
0.574463
0.571548
0.568718
0.565966
0.563283
0.560661
0.55809
0.555563
0.55307
0.550606
0.548162
0.545732
0.543312
0.540896
0.538483
0.53607
0.533656
0.531244
0.528834
0.526429
0.524033
0.521651
0.519286
0.516944
0.514629
0.512346
0.510099
0.507891
0.505726
0.503604
0.501528
0.499496
0.497507
0.495559
0.493649
0.491774
0.489932
0.488119
0.486334
0.484575
0.482841
0.481131
0.479442
0.477773
0.476124
0.47449
0.472872
0.471265
0.46967
0.468083
0.466503
0.464929
0.463361
0.461797
0.460237
0.458681
0.457129
0.455581
0.454033
0.452486
0.450937
0.449386
0.44783
0.446268
0.444697
0.443113
0.441512
0.439887
0.438231
0.436534
0.434782
0.432958
0.431035
0.42898
0.426741
0.424243
0.421373
0.417952
0.413685
0.408059
0.400104
0.38793
0.368223
0.340162
0.335998
0.333108
0.331382
0.330203
0.329089
0.327822
0.326298
0.324221
0.306457
0.240231
0.203992
0.200123
0.200002
0.2
0.200005
0.200011
0.200028
0.200048
0.200056
0.201423
0.202056
0.211645
0.330869
0.358968
0.36588
0.373254
0.380868
0.388171
0.39467
0.399794
0.401883
0.761347
0.758361
0.754177
0.748965
0.742916
0.73622
0.729049
0.721551
0.713854
0.706063
0.698266
0.690533
0.682923
0.675482
0.668245
0.661238
0.654481
0.647986
0.64176
0.635809
0.630133
0.62473
0.619597
0.614725
0.610105
0.605724
0.601566
0.597612
0.59384
0.590231
0.586767
0.583434
0.580219
0.577114
0.574114
0.571213
0.568406
0.565687
0.563049
0.560483
0.557978
0.555524
0.553112
0.550731
0.548373
0.546031
0.543697
0.541364
0.539028
0.536684
0.53433
0.531967
0.529594
0.527214
0.524831
0.522449
0.520074
0.517711
0.515367
0.513047
0.510757
0.508502
0.506288
0.504118
0.501995
0.499921
0.497895
0.495917
0.493982
0.492088
0.490229
0.488404
0.486608
0.48484
0.483097
0.481379
0.479684
0.478012
0.476361
0.474729
0.473113
0.471511
0.46992
0.468338
0.466763
0.465193
0.463626
0.462061
0.460498
0.458936
0.457374
0.455812
0.454254
0.452692
0.451125
0.449553
0.447974
0.446386
0.444785
0.443169
0.441533
0.43987
0.438175
0.436436
0.434642
0.432774
0.430809
0.428715
0.426443
0.423926
0.421063
0.417702
0.413604
0.40838
0.401337
0.391143
0.375267
0.349706
0.317513
0.287807
0.26107
0.225778
0.206146
0.202836
0.211855
0.227011
0.278564
0.261794
0.210326
0.20024
0.200005
0.2
0.2
0.2
0.2
0.200001
0.200001
0.200001
0.200026
0.20004
0.200432
0.352478
0.359069
0.365316
0.372551
0.379731
0.386885
0.393463
0.398803
0.40115
0.750885
0.748022
0.744061
0.739158
0.733478
0.727181
0.720416
0.713314
0.705991
0.698547
0.691066
0.68362
0.676267
0.669055
0.662021
0.655195
0.648596
0.642242
0.636141
0.630302
0.624729
0.619425
0.614388
0.609615
0.605099
0.60083
0.596792
0.592964
0.589323
0.585847
0.582513
0.579305
0.576209
0.573221
0.570335
0.56755
0.564864
0.562271
0.559764
0.557332
0.554964
0.552648
0.550371
0.548123
0.545893
0.543672
0.541452
0.539225
0.536984
0.534723
0.532441
0.530136
0.527809
0.525464
0.523104
0.520736
0.518366
0.516002
0.513652
0.511321
0.509018
0.50675
0.504523
0.502342
0.500204
0.498118
0.496092
0.494127
0.49221
0.490336
0.4885
0.486696
0.48492
0.483171
0.481448
0.479748
0.478073
0.476421
0.47479
0.473179
0.471584
0.470003
0.468433
0.46687
0.46531
0.463753
0.462195
0.460636
0.459074
0.45751
0.455942
0.454371
0.4528
0.451223
0.449636
0.448039
0.44643
0.444806
0.443163
0.441498
0.439804
0.438075
0.436302
0.434472
0.432569
0.43057
0.428446
0.426151
0.423627
0.420783
0.417494
0.413567
0.408707
0.402427
0.393839
0.381223
0.361449
0.330415
0.299736
0.247861
0.205774
0.200079
0.2
0.200009
0.200605
0.200921
0.200745
0.203117
0.2004
0.200013
0.2
0.2
0.2
0.2
0.2
0.2
0.2
0.2
0.2
0.2
0.216901
0.353019
0.35899
0.36487
0.371908
0.378973
0.385973
0.39254
0.397979
0.400468
0.740848
0.738121
0.734371
0.729737
0.724362
0.718388
0.711947
0.705159
0.698133
0.690965
0.683738
0.676522
0.669378
0.662352
0.655484
0.648804
0.642332
0.636088
0.630082
0.624326
0.618828
0.613592
0.608624
0.603926
0.599496
0.595326
0.591405
0.587711
0.584218
0.580893
0.577709
0.574642
0.571679
0.568816
0.566053
0.563394
0.56084
0.558388
0.556032
0.553758
0.551553
0.5494
0.547285
0.545196
0.54312
0.541046
0.538966
0.536867
0.534742
0.532584
0.530389
0.528154
0.525881
0.523575
0.52124
0.518886
0.516519
0.51415
0.511786
0.509438
0.507114
0.504822
0.502571
0.50035
0.498182
0.496078
0.494043
0.492079
0.490182
0.488333
0.486523
0.484745
0.482994
0.481268
0.479566
0.477889
0.476236
0.474608
0.473002
0.471418
0.469852
0.4683
0.466758
0.46522
0.463684
0.462145
0.460601
0.459051
0.457493
0.455929
0.454356
0.452776
0.451187
0.449594
0.447987
0.446364
0.444723
0.443061
0.441373
0.439655
0.437898
0.436095
0.434234
0.432299
0.430269
0.428116
0.425801
0.423268
0.420442
0.417216
0.413437
0.408879
0.403195
0.395796
0.385575
0.370355
0.346366
0.309804
0.28648
0.21937
0.200142
0.200001
0.2
0.2
0.200004
0.200009
0.200012
0.200061
0.200011
0.2
0.2
0.2
0.2
0.2
0.2
0.2
0.2
0.2
0.2
0.200505
0.269812
0.352752
0.35871
0.364475
0.371328
0.37831
0.385279
0.391802
0.39727
0.399821
0.731369
0.728764
0.725185
0.720758
0.715612
0.709874
0.703668
0.697106
0.690295
0.683328
0.676286
0.669241
0.662252
0.655366
0.64862
0.642045
0.635661
0.629487
0.623537
0.617821
0.612352
0.607141
0.602196
0.597528
0.593144
0.589048
0.585236
0.581686
0.578364
0.575223
0.572218
0.569317
0.566504
0.563776
0.561144
0.558617
0.556207
0.553915
0.551734
0.549648
0.54764
0.545687
0.54377
0.541875
0.539987
0.538096
0.536188
0.53425
0.532271
0.53024
0.528152
0.526003
0.523795
0.521535
0.519229
0.516888
0.514521
0.51214
0.509756
0.50738
0.505022
0.502695
0.500376
0.498101
0.495886
0.493745
0.491692
0.489732
0.487862
0.486046
0.48427
0.482525
0.480803
0.479102
0.477423
0.475768
0.47414
0.472539
0.470964
0.469413
0.467883
0.466368
0.464863
0.463361
0.461855
0.460342
0.458818
0.457281
0.455731
0.454168
0.452592
0.451003
0.449401
0.447792
0.446164
0.444513
0.442836
0.44113
0.43939
0.437608
0.435776
0.433883
0.431913
0.429848
0.42766
0.425314
0.422762
0.419939
0.416756
0.413091
0.40877
0.403542
0.397011
0.38848
0.376584
0.358595
0.329961
0.286512
0.274977
0.206439
0.200086
0.200001
0.2
0.2
0.2
0.2
0.2
0.200001
0.2
0.2
0.2
0.2
0.2
0.2
0.2
0.2
0.2
0.2
0.20002
0.203244
0.289978
0.352401
0.358392
0.364126
0.370854
0.377731
0.384639
0.391161
0.396638
0.399196
0.722503
0.719992
0.716533
0.712244
0.707242
0.701649
0.695583
0.689155
0.682471
0.675624
0.668696
0.661758
0.654866
0.648066
0.641394
0.634877
0.628533
0.622379
0.616429
0.610694
0.605188
0.599926
0.594925
0.590207
0.585674
0.58147
0.577754
0.574375
0.571279
0.568392
0.565635
0.562955
0.560329
0.557758
0.555266
0.552884
0.550638
0.548536
0.546574
0.544731
0.542981
0.54129
0.539633
0.537991
0.536349
0.534695
0.533014
0.531289
0.529502
0.527639
0.52569
0.523651
0.521526
0.519322
0.51705
0.514722
0.512352
0.509953
0.507538
0.50512
0.502713
0.500302
0.497902
0.495537
0.49323
0.491009
0.488906
0.486939
0.485105
0.483337
0.481612
0.479912
0.478228
0.476558
0.474905
0.473276
0.471676
0.470107
0.46857
0.467063
0.465582
0.46412
0.462668
0.461216
0.459756
0.45828
0.456785
0.455268
0.453731
0.452173
0.450595
0.448997
0.44738
0.445747
0.444095
0.442413
0.440695
0.438937
0.437131
0.435269
0.433341
0.43133
0.42922
0.426984
0.424591
0.422
0.419156
0.415986
0.412393
0.408246
0.40336
0.397463
0.390114
0.380496
0.36694
0.346164
0.313083
0.263816
0.2184
0.201013
0.200011
0.2
0.2
0.2
0.2
0.2
0.2
0.2
0.2
0.2
0.2
0.2
0.2
0.2
0.2
0.2
0.2
0.2
0.200042
0.203785
0.310967
0.352246
0.358169
0.36385
0.370454
0.37723
0.384067
0.390552
0.396019
0.398575
0.714262
0.711812
0.70842
0.704193
0.699248
0.693702
0.687675
0.681282
0.67463
0.667817
0.660927
0.654027
0.647171
0.640402
0.633748
0.627233
0.620869
0.61467
0.608644
0.602801
0.597153
0.591718
0.586328
0.580803
0.575413
0.570348
0.565952
0.562849
0.560208
0.557878
0.555677
0.553488
0.551259
0.548997
0.546756
0.544617
0.542648
0.540879
0.539307
0.537905
0.536621
0.535397
0.534187
0.532967
0.531724
0.530448
0.529125
0.52773
0.526239
0.524629
0.522887
0.52101
0.519003
0.516879
0.514654
0.512344
0.509969
0.507545
0.505088
0.502612
0.500133
0.497601
0.495061
0.492529
0.490032
0.48762
0.485372
0.483364
0.481584
0.479894
0.478251
0.476625
0.474998
0.473369
0.471749
0.470151
0.468586
0.46706
0.465575
0.464131
0.462724
0.461344
0.459977
0.458608
0.457222
0.455809
0.454362
0.452881
0.451366
0.449819
0.448243
0.44664
0.445009
0.443349
0.441673
0.439953
0.438182
0.436355
0.434462
0.432492
0.430432
0.428262
0.42596
0.423498
0.42084
0.417941
0.414745
0.411179
0.407144
0.402506
0.397075
0.390562
0.382473
0.371842
0.356653
0.333133
0.296381
0.245921
0.206694
0.200383
0.200004
0.2
0.2
0.2
0.2
0.2
0.2
0.2
0.2
0.2
0.2
0.2
0.2
0.2
0.2
0.2
0.2
0.200001
0.200052
0.202879
0.344571
0.352591
0.358097
0.363635
0.370095
0.376766
0.383526
0.389963
0.395402
0.39795
0.706644
0.704222
0.700837
0.696595
0.69161
0.686004
0.679903
0.673433
0.666711
0.65984
0.652905
0.645972
0.639088
0.632287
0.62559
0.61901
0.612552
0.606217
0.600007
0.593919
0.587961
0.581806
0.575141
0.568143
0.560758
0.553482
0.546855
0.543472
0.541625
0.540446
0.53941
0.538236
0.536778
0.535033
0.533132
0.531289
0.529712
0.528482
0.527605
0.527035
0.52667
0.526365
0.52602
0.525597
0.525092
0.524505
0.523826
0.523023
0.522054
0.520885
0.519497
0.51789
0.516079
0.514087
0.51194
0.509667
0.507293
0.504841
0.502329
0.499775
0.49716
0.494463
0.491696
0.48886
0.485973
0.483106
0.480457
0.478317
0.476625
0.475086
0.473603
0.472114
0.470587
0.469021
0.467441
0.465879
0.464359
0.462892
0.461485
0.46014
0.458853
0.457614
0.456401
0.455182
0.453932
0.452633
0.451276
0.44986
0.448389
0.44687
0.445307
0.443704
0.442061
0.440377
0.43866
0.436897
0.435062
0.433145
0.431135
0.429019
0.42678
0.424396
0.421843
0.41909
0.416102
0.412838
0.409247
0.405263
0.400791
0.395702
0.3898
0.382773
0.374051
0.362471
0.345614
0.319344
0.279879
0.232207
0.202249
0.200058
0.200001
0.2
0.2
0.2
0.2
0.2
0.2
0.2
0.2
0.2
0.2
0.2
0.2
0.2
0.2
0.2
0.2
0.200002
0.200127
0.207877
0.34537
0.352598
0.357918
0.363376
0.369718
0.376298
0.382987
0.389374
0.394781
0.397319
0.699624
0.697183
0.693741
0.689404
0.684296
0.678553
0.672235
0.66552
0.658609
0.651579
0.644514
0.637473
0.630493
0.623594
0.616782
0.610056
0.603403
0.596807
0.590247
0.583704
0.576917
0.568925
0.559795
0.549536
0.537923
0.526914
0.515495
0.511562
0.511003
0.512243
0.513587
0.514409
0.514322
0.513256
0.511279
0.50824
0.507022
0.506567
0.506892
0.507934
0.509482
0.511096
0.512504
0.513636
0.514535
0.515251
0.515796
0.516123
0.516151
0.515813
0.515081
0.513967
0.512507
0.51075
0.508748
0.50655
0.504195
0.501717
0.499141
0.496483
0.493679
0.490727
0.487597
0.484241
0.480613
0.476759
0.47311
0.470722
0.469188
0.46797
0.46682
0.465609
0.464264
0.462781
0.461224
0.459683
0.458206
0.45681
0.455508
0.45431
0.453221
0.452231
0.451303
0.450369
0.449378
0.448295
0.447106
0.445813
0.444428
0.442964
0.441432
0.439842
0.438194
0.436486
0.434714
0.432905
0.43099
0.428959
0.4268
0.424497
0.422032
0.419382
0.41652
0.413418
0.410049
0.40638
0.40238
0.397994
0.393142
0.387694
0.381443
0.374034
0.364784
0.352257
0.333554
0.304363
0.263302
0.222143
0.200738
0.200005
0.2
0.2
0.2
0.2
0.2
0.2
0.2
0.2
0.2
0.2
0.2
0.2
0.2
0.2
0.2
0.2
0.2
0.200003
0.200389
0.239173
0.345099
0.352287
0.357584
0.36302
0.369282
0.375792
0.382424
0.388772
0.394153
0.396682
0.693165
0.69064
0.687047
0.682498
0.677133
0.671106
0.664541
0.657573
0.650459
0.643046
0.635581
0.628351
0.621204
0.614134
0.607123
0.600142
0.593154
0.586109
0.578953
0.571618
0.562361
0.550867
0.536748
0.522027
0.505275
0.493249
0.478932
0.476217
0.476498
0.480829
0.484841
0.487794
0.488964
0.487963
0.48313
0.476119
0.473196
0.473049
0.474515
0.477695
0.482409
0.487279
0.491514
0.495032
0.498058
0.50081
0.503374
0.505669
0.507488
0.508653
0.509097
0.50885
0.507998
0.506645
0.504893
0.50283
0.500524
0.498029
0.495378
0.492587
0.489558
0.486269
0.482633
0.478514
0.473701
0.468123
0.462555
0.460109
0.458867
0.458315
0.457778
0.457051
0.455972
0.454519
0.452536
0.450723
0.44924
0.447894
0.446697
0.445679
0.444871
0.444291
0.443885
0.443478
0.442964
0.442272
0.441376
0.440292
0.439049
0.437678
0.436206
0.434649
0.433012
0.431292
0.429478
0.427574
0.425581
0.423425
0.421095
0.418575
0.415847
0.412888
0.409674
0.406182
0.402395
0.398304
0.393907
0.389177
0.384045
0.378377
0.371928
0.364269
0.354546
0.340948
0.319985
0.287437
0.246137
0.215186
0.200353
0.200003
0.2
0.2
0.2
0.2
0.2
0.2
0.2
0.2
0.2
0.2
0.2
0.2
0.2
0.2
0.2
0.2
0.2
0.200074
0.204925
0.274781
0.344681
0.351843
0.357137
0.36256
0.368763
0.375221
0.381816
0.388142
0.393513
0.396038
0.687244
0.684563
0.680712
0.67581
0.670018
0.663531
0.65653
0.649183
0.641741
0.634144
0.626466
0.618518
0.610979
0.603636
0.596311
0.588926
0.581398
0.573627
0.565482
0.555622
0.542385
0.524163
0.503302
0.487467
0.469446
0.463679
0.459089
0.435383
0.428503
0.467928
0.470378
0.47245
0.472984
0.470744
0.462103
0.450523
0.446947
0.444875
0.44533
0.448237
0.454878
0.462251
0.468374
0.473296
0.477676
0.482062
0.486699
0.491459
0.495801
0.499191
0.501392
0.502431
0.502467
0.501694
0.500295
0.498419
0.496184
0.493671
0.490928
0.487971
0.484684
0.481014
0.476809
0.471805
0.46551
0.457835
0.450326
0.448472
0.447595
0.448103
0.448302
0.44814
0.44728
0.445564
0.441543
0.438983
0.437179
0.435775
0.434577
0.433647
0.433091
0.433046
0.433533
0.434007
0.434289
0.434223
0.433769
0.432976
0.431919
0.430667
0.429273
0.42777
0.426169
0.424464
0.422628
0.420638
0.418558
0.416266
0.41374
0.410974
0.407956
0.404667
0.401086
0.397192
0.392976
0.388452
0.383683
0.37868
0.373384
0.367655
0.361157
0.35333
0.343075
0.328074
0.304118
0.267659
0.227904
0.210425
0.200215
0.200002
0.2
0.2
0.2
0.2
0.2
0.2
0.2
0.2
0.2
0.2
0.2
0.2
0.2
0.2
0.2
0.200004
0.20011
0.202165
0.221253
0.304356
0.344439
0.351395
0.356615
0.361996
0.368141
0.374563
0.381142
0.387474
0.392861
0.395388
0.681834
0.678914
0.674673
0.669233
0.662789
0.655604
0.647952
0.640064
0.632165
0.624238
0.616276
0.60825
0.599981
0.591726
0.583899
0.575891
0.567517
0.55857
0.548748
0.533493
0.513519
0.486843
0.463399
0.454306
0.447495
0.326917
0.212899
0.205417
0.216085
0.234686
0.414159
0.460224
0.461123
0.457351
0.442378
0.435222
0.390521
0.276316
0.276018
0.394484
0.444817
0.45007
0.454001
0.457021
0.46005
0.463864
0.469006
0.475551
0.482507
0.488442
0.492692
0.49522
0.496264
0.49613
0.495099
0.493398
0.491202
0.488636
0.48577
0.482617
0.479087
0.475093
0.470425
0.464672
0.456946
0.447968
0.44193
0.42778
0.416573
0.43962
0.440212
0.440515
0.43969
0.436461
0.427644
0.422831
0.420928
0.41931
0.417246
0.416152
0.415612
0.41617
0.418554
0.420742
0.422506
0.423532
0.423754
0.423346
0.422505
0.421379
0.420071
0.418645
0.417129
0.415503
0.413695
0.41166
0.409378
0.406957
0.404274
0.401333
0.398121
0.394615
0.390777
0.386559
0.381916
0.376848
0.371642
0.366361
0.360976
0.355352
0.3489
0.340825
0.329713
0.31263
0.284704
0.245379
0.212171
0.200453
0.200006
0.2
0.2
0.2
0.2
0.2
0.2
0.2
0.2
0.2
0.2
0.2
0.2
0.2
0.2
0.2
0.2
0.200009
0.200346
0.205073
0.238789
0.337159
0.344684
0.350975
0.356003
0.361298
0.367383
0.373786
0.380406
0.386756
0.392176
0.394727
0.676899
0.673646
0.668849
0.662612
0.655184
0.646962
0.638383
0.629756
0.621262
0.612882
0.604571
0.596296
0.587829
0.578661
0.569273
0.560256
0.550512
0.539538
0.52393
0.497873
0.473307
0.445036
0.43639
0.347086
0.215848
0.202062
0.200153
0.200052
0.200141
0.200355
0.206676
0.38754
0.444281
0.439295
0.420338
0.26364
0.201089
0.20043
0.2008
0.208274
0.403621
0.442287
0.443941
0.444539
0.445392
0.447399
0.451618
0.459242
0.469327
0.478037
0.484273
0.488142
0.490047
0.490415
0.48962
0.487967
0.485696
0.482983
0.479941
0.476581
0.472887
0.468752
0.463931
0.457817
0.448913
0.439634
0.361691
0.205775
0.204059
0.217654
0.377258
0.431088
0.431214
0.426938
0.416858
0.340422
0.210524
0.228518
0.202287
0.200686
0.21285
0.353878
0.410458
0.412057
0.413723
0.414767
0.41482
0.414179
0.413113
0.411801
0.410359
0.408871
0.407383
0.405859
0.404101
0.402031
0.399644
0.397046
0.394211
0.391118
0.387745
0.38404
0.379923
0.375261
0.369847
0.363472
0.357431
0.351652
0.346153
0.340887
0.334356
0.325324
0.312172
0.291582
0.258523
0.222391
0.203872
0.200075
0.200001
0.2
0.2
0.2
0.2
0.2
0.2
0.2
0.2
0.2
0.2
0.2
0.2
0.2
0.2
0.2
0.2
0.200005
0.200353
0.203999
0.23437
0.337352
0.34436
0.350294
0.355185
0.360394
0.366524
0.372906
0.379533
0.385932
0.391429
0.39405
0.6724
0.668713
0.663139
0.655716
0.64677
0.636971
0.627083
0.617474
0.608243
0.599314
0.590574
0.581894
0.573003
0.563518
0.55256
0.54083
0.528547
0.513478
0.479481
0.440411
0.423188
0.41224
0.231994
0.203435
0.200262
0.200023
0.200001
0.2
0.200001
0.200003
0.20008
0.224647
0.33075
0.414669
0.361889
0.216088
0.200196
0.200003
0.200004
0.200069
0.212084
0.415311
0.35054
0.304851
0.321262
0.385382
0.423279
0.455491
0.464399
0.472174
0.478323
0.482445
0.484596
0.485061
0.484189
0.482311
0.479726
0.476685
0.473393
0.469849
0.466122
0.462134
0.457668
0.451857
0.442827
0.3032
0.203411
0.200061
0.200025
0.200232
0.206357
0.394836
0.425141
0.415812
0.404294
0.315826
0.202542
0.200303
0.200021
0.200008
0.200075
0.201432
0.203977
0.340188
0.407554
0.408265
0.407487
0.406156
0.404557
0.402835
0.401085
0.399404
0.3979
0.396585
0.394887
0.392735
0.390199
0.387345
0.384287
0.380946
0.377289
0.373214
0.368571
0.363047
0.355943
0.345892
0.338641
0.331999
0.326159
0.319307
0.309512
0.294266
0.270614
0.240493
0.215497
0.203777
0.200508
0.200008
0.2
0.2
0.2
0.2
0.2
0.2
0.2
0.2
0.2
0.2
0.2
0.2
0.2
0.2
0.2
0.2
0.2
0.200003
0.200047
0.200395
0.204397
0.336516
0.343508
0.349283
0.35414
0.359372
0.365428
0.3718
0.378471
0.384973
0.390607
0.393356
0.668304
0.664089
0.657454
0.648221
0.636795
0.624427
0.612643
0.601744
0.591644
0.582104
0.572858
0.563644
0.554116
0.543856
0.532177
0.516846
0.497623
0.471288
0.407876
0.389137
0.26435
0.211485
0.200768
0.200048
0.200003
0.2
0.2
0.2
0.2
0.2
0.200002
0.200396
0.243902
0.398308
0.308854
0.206507
0.200082
0.200001
0.2
0.200001
0.319664
0.385802
0.253163
0.203473
0.206717
0.330647
0.397933
0.452496
0.461402
0.468527
0.474247
0.478132
0.480065
0.480204
0.478835
0.476303
0.472979
0.468934
0.465348
0.461777
0.45823
0.454613
0.450723
0.445769
0.43777
0.264108
0.201733
0.200022
0.2
0.200003
0.200151
0.372605
0.399673
0.333095
0.333005
0.280165
0.201545
0.200011
0.2
0.2
0.2
0.200005
0.200014
0.225289
0.391075
0.39389
0.39346
0.392102
0.390395
0.388567
0.386734