/*--------------------------------*- C++ -*----------------------------------*\
| =========                 |                                                 |
| \\      /  F ield         | OpenFOAM: The Open Source CFD Toolbox           |
|  \\    /   O peration     | Version:  2.1.0                                 |
|   \\  /    A nd           | Web:      www.OpenFOAM.org                      |
|    \\/     M anipulation  |                                                 |
\*---------------------------------------------------------------------------*/
FoamFile
{
    version     2.0;
    format      ascii;
    class       surfaceScalarField;
    location    "8030";
    object      phi_w;
}
// * * * * * * * * * * * * * * * * * * * * * * * * * * * * * * * * * * * * * //

dimensions      [1 -2 -2 0 0 0 0];

internalField   nonuniform List<scalar> 
22000
(
17.134
17.1338
-24.8302
29.1758
15.4163
-19.1785
36.2894
13.076
-12.9471
40.1301
10.8128
-8.17741
42.1813
8.87655
-5.00427
43.4245
7.29044
-3.02255
44.4332
6.00071
-1.8136
45.5197
4.94402
-1.07365
46.843
4.06961
-0.609794
48.4739
3.344
-0.307128
50.4321
2.74813
-0.10018
52.7102
2.2723
0.0470952
55.2905
1.91335
0.150817
58.1447
1.66861
0.204192
61.2501
1.53621
0.184837
64.5903
1.51976
0.0563664
68.1921
1.62365
-0.214736
72.0949
1.86894
-0.70175
76.2672
2.24874
-1.53994
80.4791
2.69144
-2.84574
84.2076
3.03858
-4.50352
86.8989
3.1756
-5.81671
88.2671
3.16975
-5.62176
88.1539
3.11501
-3.78866
86.7305
3.093
-1.95807
84.3686
3.20694
-0.923999
81.2922
3.48831
-0.430634
77.5736
3.91802
-0.203207
73.2166
4.45411
-0.0980181
68.223
5.04169
-0.0483722
62.6277
5.61971
-0.0243111
56.5071
6.13315
-0.0124242
49.9673
6.54619
-0.00651389
43.1234
6.84722
-0.00343539
36.0806
7.04471
-0.00176583
28.9225
7.159
-0.000922165
21.7083
7.21469
-0.000486344
14.4738
7.23483
-0.000256831
7.23612
7.23788
-0.000175068
7.23639
-0.000255984
15.4165
29.1757
-19.1786
26.8355
26.8354
-15.3381
34.0262
23.3864
-10.7417
38.1938
19.8163
-6.99329
40.5952
16.5889
-4.38165
42.1348
13.8274
-2.69256
43.3765
11.5046
-1.63167
44.6453
9.55031
-0.965751
46.1174
7.90081
-0.538506
47.878
6.51352
-0.253925
49.9562
5.36691
-0.0563444
52.3512
4.45246
0.0849768
55.0458
3.7692
0.180124
58.0123
3.31171
0.21674
61.2337
3.07725
0.167386
64.6942
3.06115
-0.0115425
68.4373
3.27885
-0.354787
72.4747
3.73223
-0.964419
76.7099
4.36633
-1.97082
80.8263
5.02139
-3.41279
84.3447
5.49315
-4.97865
86.8931
5.72493
-5.79579
88.2124
5.79733
-4.9757
88.1319
5.78385
-3.11805
86.8444
5.85394
-1.64473
84.6499
6.17363
-0.817221
81.7219
6.8024
-0.396606
78.1097
7.71972
-0.19176
73.8042
8.85286
-0.0935889
68.801
10.0912
-0.046454
63.1411
11.303
-0.023512
56.9201
12.3662
-0.0121039
50.2683
13.2043
-0.00628412
43.3209
13.798
-0.00325669
36.1949
14.1725
-0.00170767
28.9782
14.3765
-0.000905123
21.7285
14.4649
-0.000473459
14.4768
14.4867
-0.000243501
7.23463
14.48
-0.000160678
14.4705
-0.000256791
13.0762
36.2894
-12.9474
23.3864
34.0259
-10.7417
30.4561
30.456
-7.86842
34.9664
26.4974
-5.34059
37.8337
22.692
-3.46461
39.812
19.26
-2.18413
41.4223
16.2415
-1.3413
42.9958
13.6072
-0.78929
44.7301
11.3182
-0.421308
46.7314
9.35281
-0.168487
49.0418
7.71023
0.00963062
51.668
6.40372
0.13514
54.5883
5.43999
0.206259
57.7779
4.8162
0.203021
61.2176
4.5242
0.0888822
64.9119
4.55546
-0.178899
68.8907
4.91654
-0.661138
73.1088
5.55688
-1.47544
77.365
6.3271
-2.70303
81.298
6.99826
-4.20554
84.5765
7.43694
-5.39793
86.9654
7.67677
-5.37502
88.1989
7.76498
-3.95294
88.2019
7.81838
-2.33169
87.1641
8.07017
-1.26491
85.2787
8.69589
-0.658909
82.6392
9.77074
-0.333915
79.2428
11.2819
-0.167085
75.0425
13.1364
-0.0836119
70.0127
15.1633
-0.0422418
64.2043
17.1332
-0.0215878
57.7583
18.8233
-0.011178
50.8621
20.1064
-0.00583367
43.6953
20.9679
-0.0030448
36.3989
21.4705
-0.00160572
29.0666
21.7097
-0.000850226
21.7503
21.7817
-0.000426227
14.4702
21.7672
-0.000159361
7.22507
21.7257
-4.31849e-05
21.6955
-0.000104545
10.8127
40.1299
-8.1773
19.8165
38.1939
-6.99329
26.4975
34.9664
-5.34066
31.1611
31.161
-3.77966
34.4017
27.2776
-2.54111
36.7936
23.5766
-1.64203
38.788
20.1572
-1.01555
40.7068
17.042
-0.583137
42.7647
14.2372
-0.281523
45.0888
11.766
-0.0680029
47.7353
9.67669
0.0824463
50.7042
8.02419
0.17662
53.9645
6.83461
0.200342
57.4858
6.10795
0.123595
61.2488
5.82355
-0.0958578
65.2729
5.97395
-0.504564
69.5311
6.4978
-1.20108
73.879
7.23647
-2.27255
78.0361
7.94312
-3.65223
81.7367
8.44957
-4.92308
84.8163
8.76533
-5.31847
87.0537
8.92214
-4.3617
88.2523
8.97298
-2.81515
88.4537
9.12739
-1.6432
87.7898
9.6195
-0.922193
86.3536
10.6223
-0.499454
84.1503
12.2346
-0.262963
81.0973
14.4705
-0.136221
77.0694
17.2347
-0.0701405
71.9827
20.2865
-0.0362441
65.8945
23.2402
-0.0189255
59.0414
25.6863
-0.00994345
51.7235
27.4296
-0.00520067
44.198
28.4963
-0.00273618
36.6381
29.0318
-0.00147171
29.1386
29.21
-0.000809182
21.7357
29.1849
-0.000435032
14.4287
29.0744
-0.000180588
7.19494
28.9597
-4.73541e-05
28.8905
-5.01276e-05
8.87663
42.1814
-5.00432
16.589
40.5952
-4.38178
22.6921
37.8337
-3.46471
27.2777
34.4016
-2.54115
30.7006
30.7005
-1.75871
33.3742
26.9778
-1.15307
35.6728
23.3581
-0.704312
37.902
19.9015
-0.376926
40.2935
16.6589
-0.139202
42.9995
13.713
0.0301906
46.0828
11.1948
0.139477
49.5147
9.23406
0.177393
53.2378
7.88721
0.117944
57.2015
7.14346
-0.0773381
61.3992
6.97353
-0.449061
65.7968
7.28334
-1.08284
70.2697
7.87746
-2.05657
74.5857
8.47945
-3.32077
78.5426
8.91167
-4.53472
82.0525
9.18564
-5.05528
84.9731
9.32393
-4.38617
87.1045
9.33414
-3.01321
88.4067
9.37081
-1.86484
88.9458
9.6577
-1.11806
88.7927
10.4079
-0.648466
87.9658
11.8089
-0.363029
86.3862
14.0112
-0.197686
83.8616
17.101
-0.105836
80.1212
21.0314
-0.056253
74.9364
25.5011
-0.0298981
68.3405
29.8518
-0.0159089
60.7847
33.2508
-0.00842724
52.7902
35.4288
-0.00446226
44.7335
36.5556
-0.00239989
36.8163
36.9503
-0.00131224
29.1135
36.9136
-0.000712621
21.6252
36.6737
-0.000361362
14.314
36.3858
-0.00014669
7.12578
36.148
-5.44734e-05
36.0163
-4.79602e-05
7.2905
43.4246
-3.02264
13.8275
42.1348
-2.69265
19.26
39.812
-2.18419
23.5766
36.7935
-1.64205
26.9779
33.3741
-1.15307
29.7545
29.7545
-0.749688
32.2161
26.0491
-0.432341
34.6594
22.3257
-0.189968
37.3476
18.66
-0.0125077
40.4812
15.2018
0.103939
44.122
12.2047
0.145585
48.1678
9.96114
0.0865119
52.4941
8.5528
-0.107172
57.0315
7.92696
-0.474905
61.709
7.92177
-1.09192
66.3909
8.26296
-2.01763
70.8717
8.63062
-3.18358
75.0179
8.86768
-4.26202
78.8166
9.00734
-4.6976
82.1908
9.05362
-4.103
84.9833
8.98398
-2.90652
87.1412
8.9001
-1.88928
88.6936
8.97123
-1.20362
89.6961
9.38667
-0.745927
90.1937
10.3519
-0.445407
90.168
12.0907
-0.256933
89.476
14.8476
-0.144473
87.792
18.8646
-0.0799227
84.5909
24.2762
-0.0437586
79.2871
30.8287
-0.0238195
71.7395
37.4124
-0.0128925
62.9626
42.0349
-0.00694471
53.9171
44.4782
-0.00376443
45.1282
45.3466
-0.00206603
36.7796
45.3
-0.00113215
28.8736
44.8202
-0.000592531
21.3374
44.2103
-0.000285122
14.0761
43.6473
-0.000134232
6.99409
43.2301
-8.2651e-05
43.0105
-6.25049e-05
6.00075
44.4332
-1.81364
11.5046
43.3765
-1.63171
16.2416
41.4222
-1.34132
20.1572
38.7879
-1.01556
23.3582
35.6728
-0.704314
26.0491
32.2161
-0.432341
28.4928
28.4927
-0.208425
30.9937
24.5375
-0.0361116
33.8895
20.4073
0.0786039
37.4841
16.2808
0.115117
41.8785
12.6097
0.041758
46.7595
10.1174
-0.173466
51.8683
8.7945
-0.572189
57.0263
8.32722
-1.21605
62.0502
8.28138
-2.13083
66.7586
8.28739
-3.19472
71.1088
8.24643
-4.05313
75.1576
8.20553
-4.23746
78.8628
8.1276
-3.56579
82.1211
7.97663
-2.54597
84.8994
7.80754
-1.73501
87.2123
7.71884
-1.17381
89.109
7.83823
-0.775865
90.6613
8.32552
-0.494424
91.9325
9.383
-0.303268
92.925
11.2783
-0.18004
93.493
14.3838
-0.104377
93.2036
19.2135
-0.0594708
91.1433
26.37
-0.0334599
85.8708
36.1199
-0.0186355
76.362
46.9316
-0.0102744
65.406
52.9967
-0.00564657
54.7854
55.1019
-0.00311528
45.0816
55.0522
-0.00171748
36.2998
54.0827
-0.000926403
28.2636
52.857
-0.000473826
20.7743
51.6998
-0.00024403
13.6589
50.7628
-0.000149884
6.77448
50.1146
-0.000103452
49.7851
-5.6316e-05
4.94404
45.5197
-1.07366
9.55035
44.6453
-0.965761
13.6073
42.9958
-0.789296
17.042
40.7067
-0.583138
19.9015
37.902
-0.376926
22.3258
34.6594
-0.189967
24.5375
30.9936
-0.0361113
26.8635
26.8634
0.0694689
29.763
22.2007
0.0963871
33.813
17.0688
0.000276717
39.3861
12.1531
-0.256477
45.4366
9.46526
-0.727192
51.401
8.24226
-1.44236
56.9805
7.6336
-2.36072
62.0562
7.19483
-3.26657
66.7176
6.87882
-3.78039
71.0679
6.67414
-3.59257
75.0796
6.49941
-2.83848
78.7119
6.31705
-2.05572
81.952
6.13549
-1.48301
84.8107
5.98961
-1.06784
87.3317
5.94111
-0.751107
89.5963
6.0808
-0.509484
91.7187
6.53482
-0.332336
93.8278
7.48287
-0.209097
96.0304
9.20325
-0.127647
98.3227
12.1677
-0.0761175
100.36
17.2208
-0.0446273
100.893
25.8628
-0.0257794
96.6826
40.3452
-0.0146335
82.4271
61.1954
-0.00815874
67.5112
67.9171
-0.00452636
54.7358
67.8799
-0.00251083
44.112
65.6774
-0.00138179
35.0742
63.1214
-0.000737831
27.1064
60.8253
-0.000384887
19.8373
58.9691
-0.000221826
13.0108
57.5894
-0.00014743
6.44497
56.6807
-8.62431e-05
56.2303
-3.04195e-05
4.06962
46.843
-0.609801
7.90084
46.1174
-0.53851
11.3182
44.7301
-0.421309
14.2373
42.7647
-0.281522
16.6589
40.2934
-0.1392
18.66
37.3476
-0.0125067
20.4073
33.8895
0.0786044
22.2007
29.763
0.0963873
24.6312
24.6312
-0.0156242
28.8972
17.9847
-0.319881
36.6983
9.72217
-0.887887
44.2136
6.9385
-1.72105
50.7923
5.66958
-2.61448
56.5417
4.93533
-3.22916
61.7402
4.51863
-3.2622
66.5129
4.27882
-2.75195
70.8931
4.12277
-2.11641
74.8973
4.00396
-1.62222
78.5303
3.89978
-1.25556
81.8061
3.80813
-0.961443
84.7622
3.74528
-0.715707
87.4714
3.74438
-0.513658
90.0504
3.85617
-0.354736
92.6668
4.1545
-0.236152
95.5482
4.75337
-0.152121
98.9949
5.8519
-0.0952518
103.376
7.84531
-0.0583293
109.002
11.6295
-0.035062
115.375
19.5102
-0.020644
117.533
38.1998
-0.0118217
89.1488
89.5859
-0.0064737
67.4739
89.5956
-0.00355387
52.5333
82.8225
-0.00196909
41.5561
76.6558
-0.00108225
32.7781
71.9
-0.000576555
25.2503
68.3535
-0.000309644
18.4576
65.762
-0.000184711
12.102
63.9451
-0.000111275
5.99462
62.7882
-5.06282e-05
62.225
-1.74732e-05
3.34401
48.4739
-0.307133
6.51354
47.878
-0.253927
9.35284
46.7314
-0.168487
11.7661
45.0888
-0.0680016
13.7131
42.9995
0.030192
15.2019
40.4812
0.10394
16.2809
37.4841
0.115118
17.0689
33.8129
0.000276941
17.9847
28.8971
-0.319881
20.6347
20.6346
-0.965073
33.9147
22.375
-1.8468
42.9447
33.5075
-2.67174
50.0581
40.5989
-2.87335
56.125
45.8315
-2.54191
61.5004
49.9709
-2.0981
66.3569
53.3752
-1.73705
70.7743
56.2495
-1.44577
74.7931
58.7339
-1.19053
78.4387
60.9426
-0.956989
81.7433
62.985
-0.745128
84.7613
64.9778
-0.559854
87.5832
67.0545
-0.405447
90.3487
69.3737
-0.283171
93.2657
72.1371
-0.191139
96.6467
75.6281
-0.125097
100.988
80.3014
-0.0797595
107.16
87.0232
-0.0497104
116.883
97.8094
-0.0302899
134.065
118.477
-0.0179983
168.919
169.497
-0.0102248
89.1585
169.351
-0.00491788
60.7009
118.056
-0.0026247
46.3665
97.1583
-0.00145987
36.8003
86.2229
-0.000801915
29.2315
79.4694
-0.000427574
22.6588
74.9264
-0.000233425
16.6406
71.7804
-0.000133888
10.9452
69.6407
-6.95375e-05
5.43139
68.3021
-3.21618e-05
67.6564
-3.15169e-05
2.74814
50.4321
-0.100183
5.36693
49.9563
-0.0563456
7.71025
49.0418
0.00963122
9.67672
47.7353
0.0824476
11.1948
46.0828
0.139478
12.2048
44.122
0.145586
12.6097
41.8784
0.0417585
12.1531
39.3861
-0.256477
9.72219
36.6983
-0.887887
22.375
33.9146
-1.8468
45.0471
45.0471
-3.83636
50.0361
62.6587
-2.88196
55.2907
76.1745
-2.01631
60.2644
86.7681
-1.44192
64.9047
95.3062
-1.17654
69.2312
102.348
-1.04613
73.2588
108.272
-0.936028
77.0018
113.367
-0.811407
80.481
117.871
-0.674136
83.7361
122.001
-0.536017
86.8379
125.974
-0.408245
89.9024
130.015
-0.298894
93.1121
134.375
-0.211118
96.7566
139.346
-0.144192
101.32
145.291
-0.0955453
107.71
152.684
-0.0617041
117.946
162.126
-0.0388605
137.551
174.101
-0.0238021
185.085
187.089
-0.013916
168.773
186.524
-0.00666059
37.863
134.832
-0.00225354
39.8035
116.117
-0.00154287
35.4311
101.532
-0.000944955
30.0469
91.6077
-0.000538461
24.6885
84.8283
-0.000296178
19.5128
80.1024
-0.000164987
14.5009
76.7925
-8.88729e-05
9.60654
74.5351
-4.39914e-05
4.78572
73.1229
-3.33776e-05
72.4421
-4.93802e-05
2.27231
52.7102
0.0470935
4.45247
52.3512
0.0849765
6.40374
51.668
0.135141
8.02421
50.7042
0.176621
9.23408
49.5146
0.177394
9.96116
48.1678
0.0865128
10.1174
46.7594
-0.173465
9.46527
45.4366
-0.727192
6.93851
44.2136
-1.72105
33.5075
42.9447
-2.67174
62.6588
50.036
-2.88196
63.5519
63.5518
-1.81136
65.8843
75.1265
-1.29079
68.8026
84.8115
-0.96401
71.9463
92.9209
-0.759405
75.1555
99.766
-0.628363
78.3536
105.608
-0.533637
81.5056
110.668
-0.45267
84.6115
115.14
-0.375535
87.7089
119.205
-0.300956
90.879
123.037
-0.232278
94.2618
126.805
-0.172826
98.083
130.678
-0.124128
102.702
134.813
-0.0863785
108.713
139.338
-0.0584162
117.152
144.284
-0.0384067
129.921
149.382
-0.0245549
150.539
153.499
-0.0151866
184.52
153.117
-0.00871968
117.081
139.203
-0.0036807
19.1472
118.005
-0.00110611
25.2185
110.046
-0.000855077
25.5071
101.244
-0.000565016
23.2675
93.8477
-0.000341655
19.9626
88.1335
-0.000199331
16.2029
83.8623
-0.000110995
12.2435
80.752
-5.35897e-05
8.19432
78.5844
-2.62174e-05
4.10491
77.2123
-2.83792e-05
76.547
-4.0339e-05
1.91335
55.2905
0.150816
3.76921
55.0458
0.180125
5.44
54.5883
0.20626
6.83463
53.9645
0.200344
7.88723
53.2378
0.117946
8.55281
52.4941
-0.107171
8.79452
51.8682
-0.572189
8.24227
51.401
-1.44236
5.66958
50.7923
-2.61448
40.5989
50.0581
-2.87335
76.1746
55.2907
-2.01631
75.1265
65.8842
-1.29079
75.5693
75.5693
-0.884745
76.912
84.109
-0.639913
78.7915
91.5262
-0.485335
80.9979
97.9428
-0.383367
83.4132
103.506
-0.312236
85.9774
108.362
-0.25758
88.6766
112.652
-0.211057
91.5406
116.51
-0.16913
94.6476
120.061
-0.131546
98.1347
123.418
-0.0990795
102.218
126.667
-0.0723721
107.227
129.855
-0.0512728
113.659
132.942
-0.0352049
122.251
135.715
-0.0234978
134.038
137.611
-0.0152785
150.156
137.39
-0.00955242
170.607
132.672
-0.00544021
95.8829
119.945
-0.00216882
11.1886
108.715
-0.000572362
16.4162
104.819
-0.000475563
18.1111
99.5492
-0.000337254
17.5533
94.4057
-0.000218879
15.6914
89.9955
-0.000130905
13.0926
86.4614
-6.45847e-05
10.0759
83.7689
-1.92894e-05
6.82222
81.8382
1.2391e-07
3.4396
80.595
6.89781e-07
79.9866
1.60107e-06
1.66861
58.1447
0.204192
3.31171
58.0123
0.21674
4.81622
57.7779
0.203022
6.10796
57.4858
0.123597
7.14347
57.2015
-0.0773368
7.92697
57.0315
-0.474904
8.32723
57.0263
-1.21605
7.63361
56.9805
-2.36072
4.93534
56.5417
-3.22916
45.8315
56.125
-2.54191
86.7681
60.2644
-1.44192
84.8115
68.8026
-0.96401
84.109
76.9119
-0.639913
84.3292
84.3292
-0.440481
85.208
90.9644
-0.317642
86.5607
96.8293
-0.239294
88.2692
101.985
-0.186971
90.2675
106.513
-0.149543
92.5348
110.505
-0.12029
95.0921
114.049
-0.0957381
98.0039
117.225
-0.0747145
101.384
120.094
-0.0568382
105.406
122.687
-0.0419969
110.314
124.978
-0.0300857
116.432
126.846
-0.0209465
124.147
128.014
-0.0142318
133.816
127.953
-0.00940438
145.438
125.774
-0.00593567
157.88
120.233
-0.00338225
84.6534
110.195
-0.00131389
7.29227
103.099
-0.000319187
11.1466
100.965
-0.000282666
12.9677
97.7282
-0.000210441
13.143
94.2305
-0.000137948
12.1573
90.9814
-7.37749e-05
10.4001
88.2189
-2.06008e-05
8.14522
86.024
1.63788e-05
5.57896
84.4046
3.62892e-05
2.83126
83.3428
4.70192e-05
82.8179
5.79685e-05
1.53621
61.2501
0.184837
3.07726
61.2337
0.167387
4.52421
61.2176
0.0888837
5.82356
61.2488
-0.0958564
6.97354
61.3992
-0.44906
7.92178
61.709
-1.09192
8.28139
62.0502
-2.13083
7.19484
62.0562
-3.26657
4.51863
61.7402
-3.2622
49.9709
61.5004
-2.0981
95.3063
64.9047
-1.17654
92.9209
71.9463
-0.759405
91.5262
78.7915
-0.485335
90.9645
85.208
-0.317642
91.0729
91.0729
-0.216542
91.7161
96.3413
-0.154857
92.7977
101.019
-0.115672
94.2593
105.141
-0.0893136
96.0787
108.756
-0.0700648
98.2679
111.915
-0.0550718
100.873
114.663
-0.0427975
103.977
117.024
-0.0325961
107.697
118.992
-0.0242434
112.182
120.51
-0.0175578
117.6
121.441
-0.0123922
124.086
121.537
-0.00854486
131.637
120.407
-0.00572665
139.898
117.516
-0.00365441
147.841
112.292
-0.00208529
77.5578
104.457
-0.000797451
5.15751
99.4778
-0.000194321
7.91014
98.2121
-0.000171593
9.46994
96.1685
-0.000120967
9.89394
93.8066
-6.8309e-05
9.39482
91.4806
-2.11805e-05
8.20521
89.4086
1.79571e-05
6.52586
87.7035
4.88158e-05
4.51709
86.4135
7.37355e-05
2.30645
85.5534
9.4575e-05
85.1244
0.000109667
1.51976
64.5903
0.0563669
3.06116
64.6942
-0.0115415
4.55547
64.9119
-0.178898
5.97396
65.2729
-0.504562
7.28334
65.7968
-1.08283
8.26297
66.3909
-2.01763
8.2874
66.7586
-3.19472
6.87883
66.7176
-3.78039
4.27882
66.5129
-2.75195
53.3753
66.3569
-1.73705
102.348
69.2311
-1.04613
99.7661
75.1555
-0.628363
97.9428
80.9979
-0.383367
96.8293
86.5607
-0.239294
96.3413
91.7161
-0.154857
96.394
96.3939
-0.105046
96.9197
100.568
-0.074686
97.8742
104.242
-0.0552697
99.2379
107.435
-0.0419283
101.015
110.171
-0.0321952
103.235
112.469
-0.0247116
105.946
114.333
-0.0188121
109.214
115.738
-0.014059
113.113
116.623
-0.0102348
117.696
116.866
-0.00729471
122.956
116.283
-0.00511293
128.746
114.621
-0.00347141
134.674
111.591
-0.00221015
140.006
106.962
-0.00123905
72.5786
100.743
-0.000463201
3.89183
97.0232
-0.000104829
5.86653
96.2375
-7.45475e-05
7.10803
94.9271
-3.48083e-05
7.568
93.3467
-7.74506e-07
7.32282
91.7259
2.70174e-05
6.50006
90.2314
5.31827e-05
5.23587
88.9677
8.20294e-05
3.65705
87.9923
0.000113394
1.87736
87.3331
0.000140989
87.0016
0.000157004
1.62366
68.1921
-0.214736
3.27885
68.4373
-0.354786
4.91654
68.8907
-0.661137
6.49781
69.5311
-1.20107
7.87746
70.2697
-2.05657
8.63062
70.8717
-3.18358
8.24644
71.1088
-4.05313
6.67415
71.0679
-3.59257
4.12277
70.8931
-2.11641
56.2495
70.7743
-1.44577
108.272
73.2588
-0.936028
105.608
78.3536
-0.533637
103.506
83.4132
-0.312236
101.985
88.2691
-0.186971
101.019
92.7977
-0.115672
100.568
96.9197
-0.074686
100.594
100.594
-0.0505026
101.067
103.805
-0.0354902
101.974
106.555
-0.0257924
103.313
108.852
-0.0192518
105.098
110.7
-0.0145786
107.351
112.092
-0.0110313
110.098
113
-0.00819916
113.357
113.371
-0.00598648
117.113
113.114
-0.00434048
121.294
112.106
-0.00308159
125.715
110.202
-0.00206316
130.046
107.262
-0.00126746
133.786
103.223
-0.000687149
68.8585
98.1766
-0.000234866
3.10616
95.2806
-5.51003e-06
4.55607
94.7877
2.86275e-05
5.52762
93.9555
5.31739e-05
5.94722
92.927
6.8556e-05
5.82838
91.8446
8.28922e-05
5.23635
90.8234
0.000105093
4.26047
89.9435
0.000137992
2.99785
89.2549
0.000175705
1.5459
88.785
0.000206957
88.5474
0.000223582
1.86894
72.0949
-0.70175
3.73223
72.4747
-0.964418
5.55688
73.1088
-1.47544
7.23648
73.879
-2.27255
8.47945
74.5857
-3.32077
8.86769
75.0179
-4.26202
8.20553
75.1575
-4.23746
6.49941
75.0796
-2.83848
4.00396
74.8973
-1.62222
58.734
74.7931
-1.19053
113.367
77.0018
-0.811407
110.668
81.5056
-0.45267
108.362
85.9774
-0.25758
106.513
90.2675
-0.149543
105.141
94.2593
-0.0893136
104.242
97.8742
-0.0552697
103.805
101.067
-0.0354902
103.817
103.817
-0.023672
104.271
106.119
-0.0165085
105.161
107.974
-0.0119447
106.49
109.38
-0.00884363
108.26
110.329
-0.00657616
110.469
110.797
-0.00485623
113.1
110.744
-0.00359094
116.106
110.111
-0.00263499
119.389
108.826
-0.00183211
122.776
106.816
-0.00116567
126.006
104.033
-0.000684474
128.74
100.489
-0.000352595
65.9626
96.2983
-6.0286e-05
2.61324
93.9736
0.00011101
3.7239
93.677
0.000138402
4.49911
93.1802
0.000151132
4.86484
92.5611
0.000160708
4.80714
91.9021
0.000178291
4.35651
91.2738
0.000210352
3.57179
90.7281
0.000254262
2.52796
90.2985
0.000299648
1.30832
90.0044
0.000334441
89.8554
0.000352558
2.24874
76.2672
-1.53993
4.36633
76.7099
-1.97082
6.32711
77.365
-2.70303
7.94313
78.0361
-3.65223
8.91168
78.5426
-4.53472
9.00735
78.8166
-4.69761
8.12761
78.8628
-3.56579
6.31705
78.7119
-2.05573
3.89978
78.5303
-1.25556
60.9427
78.4387
-0.956989
117.871
80.481
-0.674136
115.14
84.6115
-0.375535
112.652
88.6765
-0.211057
110.505
92.5348
-0.12029
108.756
96.0787
-0.0700648
107.435
99.2379
-0.0419283
106.555
101.974
-0.0257924
106.119
104.271
-0.0165085
106.125
106.125
-0.0110567
106.568
107.54
-0.00770187
107.439
108.515
-0.00553054
108.728
109.045
-0.0040232
110.416
109.113
-0.00295698
112.467
108.696
-0.00219984
114.821
107.759
-0.00159009
117.379
106.27
-0.00105528
119.993
104.204
-0.000638196
122.462
101.564
-0.000353411
124.55
98.4017
-0.000126785
63.6378
94.8329
0.00011545
2.31671
92.9168
0.00025178
3.22709
92.7665
0.000274319
3.88001
92.527
0.000292168
4.20586
92.2349
0.000318374
4.17882
91.9288
0.000360549
3.81074
91.6415
0.000418707
3.14221
91.3962
0.000484551
2.23387
91.2064
0.000545235
1.15937
91.0784
0.000589173
91.0142
0.000611051
2.69144
80.4791
-2.84574
5.02139
80.8263
-3.41279
6.99826
81.298
-4.20553
8.44957
81.7367
-4.92308
9.18564
82.0525
-5.05528
9.05363
82.1908
-4.103
7.97664
82.1211
-2.54597
6.13549
81.952
-1.48301
3.80814
81.8061
-0.961443
62.985
81.7433
-0.745128
122.001
83.7361
-0.536017
119.205
87.7089
-0.300956
116.51
91.5406
-0.16913
114.049
95.0921
-0.0957381
111.915
98.2679
-0.0550718
110.171
101.015
-0.0321952
108.852
103.313
-0.0192518
107.974
105.161
-0.0119447
107.54
106.568
-0.00770187
107.543
107.543
-0.00516768
107.969
108.093
-0.00357123
108.797
108.219
-0.00250851
109.998
107.914
-0.00181866
111.53
107.165
-0.00134834
113.331
105.96
-0.000951287
115.312
104.29
-0.000599706
117.353
102.164
-0.000325618
119.3
99.6167
-0.00010832
120.981
96.7211
0.000109767
61.7217
93.5929
0.000342542
2.16634
91.9723
0.000454846
2.98768
91.9447
0.000487403
3.58791
91.9263
0.000534062
3.89976
91.9225
0.000603628
3.89152
91.9364
0.000696735
3.5654
91.9669
0.000805781
2.9524
92.0083
0.000916667
2.10588
92.0519
0.00101316
1.09522
92.088
0.00108175
92.1083
0.00111456
3.03858
84.2077
-4.50352
5.49315
84.3447
-4.97864
7.43695
84.5765
-5.39793
8.76534
84.8163
-5.31847
9.32393
84.9731
-4.38617
8.98398
84.9833
-2.90652
7.80754
84.8994
-1.73501
5.98961
84.8107
-1.06784
3.74528
84.7622
-0.715707
64.9778
84.7613
-0.559854
125.974
86.8379
-0.408245
123.037
90.879
-0.232278
120.061
94.6476
-0.131546
117.225
98.0039
-0.0747145
114.663
100.873
-0.0427975
112.469
103.235
-0.0247116
110.7
105.098
-0.0145786
109.38
106.49
-0.00884363
108.515
107.439
-0.00553054
108.093
107.969
-0.00357123
108.095
108.095
-0.00234143
108.492
107.824
-0.00157981
109.25
107.157
-0.00114333
110.325
106.091
-0.000844615
111.662
104.624
-0.000560402
113.186
102.766
-0.00028999
114.806
100.545
-5.35565e-05
116.405
98.0177
0.000172797
117.853
95.2731
0.000416648
60.1011
92.4333
0.000668549
2.13875
91.0229
0.000793277
2.9693
91.1134
0.000855519
3.58411
91.3106
0.000960946
3.91366
91.5919
0.00111215
3.92199
91.9268
0.00130071
3.60683
92.2806
0.00150917
2.996
92.6174
0.00171402
2.14194
92.9041
0.00189054
1.11556
93.1123
0.00201759
93.2217
0.00207987
3.1756
86.8989
-5.81671
5.72494
86.8931
-5.79579
7.67677
86.9654
-5.37502
8.92214
87.0537
-4.3617
9.33414
87.1045
-3.01322
8.9001
87.1412
-1.88928
7.71884
87.2123
-1.17381
5.94111
87.3317
-0.751107
3.74439
87.4714
-0.513658
67.0545
87.5832
-0.405447
130.015
89.9024
-0.298895
126.805
94.2618
-0.172826
123.418
98.1347
-0.0990795
120.094
101.384
-0.0568382
117.024
103.977
-0.0325961
114.333
105.946
-0.0188121
112.092
107.351
-0.0110313
110.329
108.26
-0.00657616
109.045
108.728
-0.0040232
108.219
108.797
-0.00250851
107.824
108.492
-0.00157981
107.825
107.825
-0.00105896
108.183
106.8
-0.000767036
108.858
105.417
-0.000519996
109.804
103.68
-0.000255591
110.965
101.605
1.33873e-06
112.278
99.2334
0.000246718
113.66
96.6355
0.000511572
115.013
93.9197
0.000818043
58.6907
91.2261
0.00116847
2.22922
89.9546
0.00137456
3.16652
90.1746
0.00149294
3.86543
90.61
0.00170772
4.24858
91.2068
0.00201219
4.27572
91.8974
0.00238446
3.94369
92.6098
0.00279065
3.28261
93.2753
0.00318887
2.35016
93.8329
0.00353519
1.22501
94.2335
0.00378977
94.4427
0.00392104
3.16975
88.2671
-5.62176
5.79733
88.2124
-4.97571
7.76499
88.1989
-3.95295
8.97298
88.2523
-2.81515
9.37081
88.4067
-1.86484
8.97123
88.6936
-1.20362
7.83823
89.1091
-0.775865
6.0808
89.5963
-0.509484
3.85617
90.0504
-0.354736
69.3737
90.3487
-0.283171
134.375
93.1121
-0.211118
130.678
98.083
-0.124128
126.667
102.218
-0.0723721
122.687
105.406
-0.0419969
118.992
107.697
-0.0242434
115.738
109.214
-0.014059
113
110.098
-0.00819916
110.797
110.469
-0.00485623
109.113
110.416
-0.00295698
107.914
109.998
-0.00181866
107.157
109.25
-0.00114333
106.8
108.183
-0.000767035
106.8
106.8
-0.000501598
107.121
105.096
-0.00023455
107.729
103.072
3.26348e-05
108.593
100.741
0.000287802
109.68
98.1467
0.000568116
110.944
95.3704
0.000924466
112.319
92.5435
0.00138748
57.4192
89.8422
0.00197932
2.4493
88.64
0.00236175
3.60192
89.0195
0.00258569
4.46221
89.7468
0.00300899
4.93912
90.7263
0.00360868
4.98818
91.844
0.00434018
4.60916
92.9837
0.00514007
3.84021
94.0382
0.0059304
2.75078
94.9156
0.00662633
1.43421
95.5428
0.00714643
95.8694
0.00742402
3.11501
88.1539
-3.78866
5.78385
88.1319
-3.11805
7.81838
88.2019
-2.33169
9.1274
88.4537
-1.6432
9.6577
88.9458
-1.11806
9.38668
89.6961
-0.745927
8.32552
90.6613
-0.494424
6.53482
91.7188
-0.332336
4.1545
92.6668
-0.236152
72.1371
93.2657
-0.191139
139.346
96.7566
-0.144192
134.813
102.702
-0.0863786
129.855
107.227
-0.0512728
124.978
110.314
-0.0300857
120.51
112.182
-0.0175578
116.623
113.113
-0.0102348
113.371
113.357
-0.00598648
110.744
113.1
-0.00359094
108.696
112.467
-0.00219984
107.165
111.53
-0.00134834
106.091
110.325
-0.000844615
105.417
108.858
-0.000519996
105.096
107.121
-0.00023455
105.097
105.097
4.09856e-05
105.399
102.77
0.000295964
105.999
100.141
0.000574436
106.904
97.2411
0.000959121
108.118
94.1551
0.00151499
109.618
91.0408
0.00228548
56.2169
88.1365
0.00332313
2.82881
86.9203
0.0040189
4.32923
87.5146
0.00444822
5.44177
88.629
0.00527369
6.05675
90.1049
0.00644492
6.12788
91.7649
0.00787901
5.66374
93.4383
0.00945912
4.71756
94.9733
0.0110366
3.37803
96.2426
0.0124412
1.76079
97.1465
0.0135021
97.6161
0.0140767
3.093
86.7305
-1.95808
5.85394
86.8444
-1.64473
8.07017
87.1641
-1.26491
9.6195
87.7898
-0.922193
10.4079
88.7927
-0.648466
10.3519
90.1937
-0.445407
9.383
91.9325
-0.303269
7.48288
93.8278
-0.209097
4.75337
95.5482
-0.152121
75.6281
96.6467
-0.125097
145.291
101.32
-0.0955454
139.338
108.713
-0.0584162
132.942
113.659
-0.0352049
126.846
116.432
-0.0209465
121.441
117.6
-0.0123922
116.866
117.696
-0.00729472
113.114
117.113
-0.00434049
110.111
116.106
-0.00263499
107.759
114.821
-0.00159008
105.96
113.331
-0.000951287
104.624
111.662
-0.000560402
103.68
109.804
-0.00025559
103.072
107.729
3.26351e-05
102.77
105.399
0.000295964
102.77
102.77
0.00056793
103.099
99.8105
0.000952562
103.818
96.521
0.0015576
105.003
92.967
0.00246081
106.714
89.3265
0.0037448
55.0008
85.9325
0.00553435
3.42305
84.5796
0.0067738
5.4436
85.4864
0.00760258
6.91772
87.1456
0.00920042
7.71678
89.2943
0.0114737
7.80127
91.6661
0.0142761
7.19875
94.0234
0.0173946
5.98684
96.1646
0.0205428
4.28193
97.9241
0.0233751
2.23041
99.1725
0.0255311
99.8199
0.0267043
3.20695
84.3686
-0.924
6.17364
84.6499
-0.817221
8.69589
85.2787
-0.65891
10.6223
86.3536
-0.499454
11.8089
87.9658
-0.36303
12.0907
90.1681
-0.256933
11.2783
92.925
-0.18004
9.20326
96.0304
-0.127647
5.8519
98.9949
-0.0952518
80.3014
100.988
-0.0797595
152.684
107.71
-0.0617042
144.284
117.152
-0.0384068
135.715
122.251
-0.0234978
128.014
124.147
-0.0142318
121.537
124.086
-0.00854486
116.283
122.956
-0.00511293
112.107
121.294
-0.00308159
108.826
119.389
-0.00183211
106.27
117.379
-0.00105528
104.29
115.312
-0.000599706
102.766
113.186
-0.00028999
101.605
110.965
1.33902e-06
100.741
108.593
0.000287802
100.141
105.999
0.000574436
99.8105
103.099
0.000952562
99.8096
99.8096
0.00156254
100.263
96.0647
0.00252851
101.363
91.864
0.00397172
103.32
87.3635
0.00607317
53.6479
83.0099
0.00910976
4.32979
81.3008
0.0112945
7.10282
82.7004
0.012891
9.06646
85.1659
0.0159628
10.0886
88.2518
0.0203496
10.1585
91.5703
0.0258038
9.34
94.8099
0.0319435
7.74633
97.7201
0.0382179
5.5303
100.096
0.0439256
2.87778
101.777
0.0483059
102.647
0.050697
3.48831
81.2922
-0.430634
6.80241
81.7219
-0.396607
9.77074
82.6392
-0.333915
12.2346
84.1503
-0.262963
14.0112
86.3862
-0.197687
14.8476
89.476
-0.144474
14.3838
93.493
-0.104377
12.1677
98.3228
-0.0761176
7.84531
103.376
-0.0583293
87.0233
107.16
-0.0497105
162.126
117.946
-0.0388605
149.382
129.921
-0.0245549
137.611
134.038
-0.0152785
127.953
133.816
-0.00940438
120.407
131.637
-0.00572665
114.621
128.746
-0.00347141
110.202
125.715
-0.00206316
106.816
122.776
-0.00116567
104.204
119.993
-0.000638196
102.164
117.353
-0.000325619
100.545
114.805
-5.35565e-05
99.2334
112.278
0.000246718
98.1467
109.68
0.000568116
97.2411
106.904
0.000959122
96.521
103.818
0.0015576
96.0647
100.263
0.00252851
96.0628
96.0628
0.00403827
96.8623
91.0586
0.00631004
98.9663
85.2502
0.00970295
51.9388
79.1126
0.0147717
5.72934
76.5814
0.0185711
9.56837
78.8397
0.0216337
12.1524
82.5544
0.0275043
13.407
86.9613
0.0359199
13.3982
91.5325
0.0464866
12.2501
95.8995
0.0585401
10.1225
99.7766
0.0710343
7.21082
102.925
0.0825491
3.74803
105.148
0.091476
106.299
0.0963737
3.91802
77.5736
-0.203207
7.71973
78.1097
-0.19176
11.2819
79.2428
-0.167085
14.4705
81.0974
-0.136221
17.101
83.8616
-0.105836
18.8646
87.792
-0.0799227
19.2135
93.2036
-0.0594709
17.2208
100.36
-0.0446273
11.6295
109.002
-0.0350621
97.8094
116.883
-0.0302899
174.101
137.551
-0.0238021
153.499
150.539
-0.0151867
137.39
150.156
-0.00955242
125.774
145.438
-0.00593567
117.516
139.898
-0.00365441
111.591
134.674
-0.00221015
107.262
130.046
-0.00126746
104.033
126.006
-0.000684474
101.564
122.462
-0.000353411
99.6167
119.3
-0.00010832
98.0177
116.405
0.000172797
96.6355
113.66
0.000511573
95.3704
110.944
0.000924466
94.1551
108.118
0.00151499
92.967
105.003
0.00246081
91.864
101.363
0.00397172
91.0586
96.8622
0.00631004
91.0539
91.0539
0.00986737
92.8286
83.4607
0.0152651
49.4076
74.0813
0.0235137
7.98768
69.5421
0.0299613
13.2831
73.5085
0.0358355
16.5592
79.2313