/*--------------------------------*- C++ -*----------------------------------*\
| =========                 |                                                 |
| \\      /  F ield         | OpenFOAM: The Open Source CFD Toolbox           |
|  \\    /   O peration     | Version:  2.1.0                                 |
|   \\  /    A nd           | Web:      www.OpenFOAM.org                      |
|    \\/     M anipulation  |                                                 |
\*---------------------------------------------------------------------------*/
FoamFile
{
    version     2.0;
    format      ascii;
    class       volScalarField;
    location    "32120";
    object      kr_o;
}
// * * * * * * * * * * * * * * * * * * * * * * * * * * * * * * * * * * * * * //

dimensions      [0 0 0 0 0 0 0];

internalField   nonuniform List<scalar> 
15000
(
9.67559e-14
9.87282e-08
2.94109e-06
6.67053e-05
0.000423469
0.00132646
0.00280367
0.004739
0.00701218
0.00953803
0.0122583
0.0151308
0.018122
0.0212035
0.0243507
0.0275417
0.0307571
0.0339801
0.0371962
0.0403931
0.0435611
0.0466927
0.0497821
0.0528257
0.0558212
0.0587684
0.0616681
0.0645229
0.0673348
0.0701059
0.0728379
0.0755331
0.0781934
0.080821
0.0834181
0.0859871
0.0885304
0.0910504
0.0935499
0.0960316
0.0984979
0.100951
0.103394
0.105827
0.108254
0.110674
0.113091
0.115504
0.117915
0.120323
0.12273
0.125133
0.127533
0.129927
0.132315
0.134694
0.137063
0.139421
0.141765
0.144094
0.146406
0.148699
0.150973
0.153227
0.155461
0.157674
0.159868
0.162041
0.164196
0.166332
0.16845
0.170553
0.172641
0.174715
0.176777
0.178827
0.180868
0.1829
0.184925
0.186943
0.188956
0.190965
0.192971
0.194974
0.196975
0.198976
0.200976
0.202977
0.204977
0.206978
0.208979
0.210981
0.212983
0.214986
0.216988
0.218989
0.220987
0.222982
0.224973
0.226958
0.228936
0.230905
0.232862
0.234807
0.236737
0.23865
0.240544
0.242418
0.244269
0.246097
0.247902
0.249684
0.251443
0.253181
0.2549
0.256605
0.258297
0.259978
0.261651
0.263323
0.265006
0.266728
0.268528
0.270463
0.272599
0.274998
0.277676
0.280522
0.283237
0.28547
0.287166
0.2884
0.289338
0.290293
0.291277
0.292303
0.293385
0.294536
0.295769
0.297103
0.298571
0.300224
0.302141
0.304445
0.307346
0.31127
0.317537
0.33228
0.3802
0.492695
1.11275e-07
5.16583e-07
1.51873e-05
0.000158613
0.000688029
0.00177263
0.00337714
0.00538651
0.00770042
0.0102482
0.0129804
0.0158592
0.0188538
0.0219376
0.0250867
0.0282796
0.0314972
0.0347228
0.0379419
0.0411423
0.0443141
0.0474497
0.0505432
0.0535908
0.0565903
0.0595414
0.0624451
0.0653039
0.0681195
0.0708938
0.0736286
0.0763259
0.0789876
0.0816156
0.0842122
0.0867796
0.0893204
0.0918373
0.0943332
0.0968108
0.0992724
0.10172
0.104157
0.106584
0.109003
0.111418
0.113828
0.116236
0.118641
0.121046
0.123449
0.125849
0.128246
0.130639
0.133026
0.135405
0.137776
0.140136
0.142483
0.144815
0.14713
0.149428
0.151706
0.153966
0.156205
0.158424
0.160623
0.162802
0.164961
0.167103
0.169227
0.171336
0.17343
0.17551
0.177578
0.179635
0.181682
0.183721
0.185752
0.187778
0.189799
0.191815
0.193829
0.195841
0.197853
0.199865
0.201877
0.203891
0.205906
0.207923
0.209942
0.211965
0.213992
0.216021
0.218053
0.220086
0.222122
0.224159
0.226198
0.228237
0.230276
0.232313
0.234349
0.236383
0.238415
0.240445
0.242474
0.244502
0.246533
0.248569
0.250617
0.252685
0.254781
0.25692
0.259118
0.261393
0.263759
0.266221
0.268776
0.271422
0.274182
0.277123
0.280361
0.284068
0.288466
0.293785
0.300135
0.307216
0.313957
0.318906
0.322213
0.324258
0.325491
0.326326
0.326786
0.326947
0.326985
0.326968
0.32685
0.326546
0.326023
0.325355
0.3247
0.324288
0.324436
0.325671
0.3295
0.342832
0.392286
0.502667
2.82498e-06
1.48213e-05
9.6712e-05
0.000428729
0.00121621
0.00251251
0.00424645
0.00632425
0.00867162
0.0112348
0.0139732
0.0168541
0.0198491
0.0229328
0.0260821
0.0292757
0.0324947
0.0357222
0.0389437
0.0421469
0.0453218
0.0484603
0.0515565
0.0546064
0.057608
0.0605609
0.0634665
0.0663265
0.0691428
0.0719167
0.0746501
0.0773447
0.0800025
0.0826253
0.0852155
0.0877755
0.0903077
0.0928152
0.0953007
0.0977668
0.100216
0.102651
0.105075
0.107489
0.109896
0.112298
0.114697
0.117093
0.11949
0.121885
0.12428
0.126675
0.129067
0.131456
0.133842
0.136221
0.138593
0.140955
0.143305
0.145641
0.147961
0.150263
0.152547
0.154812
0.157057
0.159281
0.161485
0.163669
0.165833
0.16798
0.170109
0.172222
0.17432
0.176405
0.178477
0.180538
0.18259
0.184633
0.186669
0.1887
0.190727
0.192749
0.19477
0.19679
0.19881
0.200832
0.202856
0.204883
0.206912
0.208946
0.210984
0.213028
0.215079
0.217135
0.219198
0.221267
0.223343
0.225426
0.227517
0.229615
0.231721
0.233835
0.235959
0.238095
0.240243
0.242408
0.244593
0.246805
0.249051
0.251345
0.253703
0.256146
0.258708
0.261433
0.264376
0.267596
0.271136
0.275
0.279137
0.283478
0.288023
0.29289
0.298318
0.304675
0.312451
0.322206
0.33434
0.348389
0.361703
0.369694
0.374534
0.37739
0.378957
0.379312
0.37842
0.376449
0.374193
0.371888
0.369304
0.366101
0.362128
0.357586
0.352825
0.348295
0.344501
0.342113
0.342891
0.354764
0.40648
0.513218
6.31595e-05
0.000152632
0.000421193
0.00103562
0.00209081
0.00357011
0.00540724
0.00753726
0.00990864
0.0124813
0.0152222
0.0181027
0.0210966
0.0241794
0.0273285
0.0305228
0.0337434
0.0369732
0.0401976
0.0434039
0.0465819
0.0497231
0.0528215
0.055873
0.0588756
0.061829
0.0647345
0.0675936
0.0704075
0.0731775
0.0759052
0.0785925
0.0812413
0.0838537
0.0864319
0.0889784
0.0914958
0.093987
0.096455
0.0989025
0.101332
0.103748
0.106151
0.108545
0.110933
0.113317
0.115698
0.118079
0.12046
0.122843
0.125227
0.127613
0.129998
0.132383
0.134766
0.137145
0.139518
0.141882
0.144236
0.146576
0.148901
0.15121
0.1535
0.15577
0.15802
0.16025
0.162459
0.164647
0.166815
0.168965
0.171098
0.173215
0.175316
0.177404
0.179479
0.181543
0.183597
0.185643
0.187683
0.189717
0.191747
0.193775
0.195801
0.197827
0.199855
0.201886
0.20392
0.205959
0.208003
0.210053
0.21211
0.214176
0.216251
0.218337
0.220433
0.222539
0.224659
0.226792
0.22894
0.231103
0.233283
0.235483
0.237707
0.239957
0.242239
0.244559
0.246928
0.249359
0.251869
0.254485
0.257242
0.260196
0.263425
0.267039
0.271181
0.275996
0.281582
0.287894
0.294696
0.301673
0.308744
0.316115
0.324232
0.333754
0.345569
0.36077
0.380321
0.403807
0.425794
0.434254
0.439393
0.442859
0.445006
0.445013
0.442347
0.436777
0.43127
0.42633
0.421077
0.414466
0.406009
0.396279
0.385994
0.375996
0.367115
0.360254
0.357525
0.368254
0.423338
0.52409
0.000399105
0.000657494
0.00118214
0.00206442
0.00332517
0.00493243
0.00684004
0.00900528
0.0113924
0.0139707
0.0167127
0.0195926
0.0225858
0.0256687
0.0288188
0.0320154
0.0352391
0.0384729
0.0417018
0.0449127
0.0480949
0.0512397
0.0543408
0.057394
0.0603973
0.0633505
0.0662547
0.0691106
0.0719191
0.0746816
0.0773997
0.0800753
0.0827102
0.0853067
0.0878671
0.090394
0.09289
0.0953582
0.0978015
0.100223
0.102626
0.105013
0.107389
0.109757
0.112118
0.114477
0.116835
0.119194
0.121556
0.123921
0.126291
0.128665
0.131041
0.13342
0.1358
0.138178
0.140552
0.142919
0.145277
0.147623
0.149954
0.152269
0.154566
0.156843
0.159099
0.161334
0.163548
0.16574
0.167913
0.170066
0.172201
0.17432
0.176423
0.178512
0.180588
0.182653
0.184709
0.186756
0.188797
0.190833
0.192866
0.194896
0.196925
0.198957
0.200991
0.20303
0.205074
0.207124
0.209182
0.211249
0.213326
0.215414
0.217516
0.219632
0.221762
0.22391
0.226076
0.228263
0.230472
0.232706
0.234969
0.237265
0.2396
0.241979
0.244414
0.246915
0.2495
0.252192
0.255025
0.258047
0.261332
0.264991
0.269192
0.274172
0.280231
0.287673
0.296662
0.306995
0.317937
0.32848
0.338494
0.348451
0.359141
0.371605
0.387187
0.407537
0.434089
0.466213
0.492288
0.495326
0.499604
0.503299
0.506306
0.50724
0.504446
0.494568
0.486489
0.480902
0.475134
0.466687
0.454061
0.43885
0.422367
0.405985
0.391197
0.37933
0.373043
0.383619
0.443438
0.534728
0.00124778
0.00168678
0.00242428
0.00349174
0.00488201
0.00656841
0.00851997
0.0107078
0.0131054
0.0156882
0.018432
0.0213132
0.0243082
0.027394
0.0305483
0.0337502
0.0369804
0.0402215
0.043458
0.0466764
0.0498654
0.053016
0.0561215
0.0591778
0.0621826
0.065136
0.0680378
0.0708884
0.0736888
0.0764401
0.0791444
0.0818035
0.0844196
0.0869949
0.0895318
0.0920329
0.0945009
0.0969389
0.0993498
0.101737
0.104105
0.106457
0.108798
0.11113
0.113458
0.115784
0.118111
0.120442
0.122779
0.125122
0.127474
0.129832
0.132198
0.13457
0.136945
0.139322
0.141697
0.144068
0.146432
0.148785
0.151124
0.153447
0.155752
0.158036
0.1603
0.162541
0.16476
0.166956
0.169132
0.171288
0.173425
0.175544
0.177648
0.179737
0.181813
0.183878
0.185933
0.18798
0.19002
0.192056
0.194089
0.19612
0.198152
0.200187
0.202226
0.204271
0.206324
0.208385
0.210456
0.21254
0.214637
0.216749
0.218878
0.221025
0.223192
0.225383
0.2276
0.229845
0.232121
0.234434
0.236788
0.23919
0.241648
0.244174
0.246783
0.249492
0.25233
0.255336
0.258566
0.262109
0.266098
0.270744
0.276364
0.283404
0.292422
0.303956
0.31824
0.334731
0.35164
0.366182
0.378761
0.390571
0.40291
0.417164
0.434907
0.457756
0.486351
0.518016
0.526611
0.552159
0.560206
0.561724
0.560455
0.55684
0.550131
0.510277
0.509661
0.510812
0.51096
0.507225
0.495193
0.478039
0.457664
0.435444
0.414807
0.398134
0.389031
0.40153
0.46703
0.544293
0.00263164
0.00320046
0.00407153
0.00524662
0.00671105
0.00844366
0.0104223
0.0126256
0.0150322
0.0176207
0.0203695
0.0232561
0.0262574
0.029351
0.0325146
0.0357271
0.0389691
0.0422226
0.0454717
0.0487022
0.0519024
0.0550628
0.0581763
0.0612385
0.0642473
0.0672014
0.0701001
0.0729436
0.0757329
0.0784695
0.0811556
0.0837935
0.0863856
0.0889341
0.0914417
0.0939106
0.0963436
0.0987436
0.101114
0.103459
0.105784
0.108091
0.110387
0.112676
0.114961
0.117246
0.119534
0.12183
0.124135
0.126451
0.128779
0.131119
0.133471
0.135833
0.138204
0.140579
0.142957
0.145333
0.147704
0.150066
0.152415
0.154749
0.157064
0.159358
0.16163
0.163879
0.166103
0.168304
0.170482
0.17264
0.174777
0.176897
0.179
0.181088
0.183163
0.185226
0.187279
0.189324
0.191362
0.193396
0.195427
0.197458
0.19949
0.201526
0.203568
0.205619
0.207678
0.209749
0.211834
0.213934
0.216052
0.218187
0.220343
0.222523
0.22473
0.226967
0.229238
0.231546
0.233896
0.236294
0.238748
0.241267
0.243864
0.246555
0.249361
0.25231
0.255446
0.258831
0.262557
0.266773
0.271711
0.277735
0.285393
0.295438
0.308773
0.326224
0.348063
0.373214
0.398152
0.415564
0.428982
0.440971
0.453271
0.467252
0.484016
0.50398
0.525838
0.546119
0.559981
0.5625
0.5625
0.5625
0.562495
0.562246
0.562107
0.560574
0.55974
0.559234
0.556505
0.550576
0.508589
0.499855
0.484214
0.459537
0.434956
0.415157
0.405373
0.423288
0.493155
0.551901
0.00443261
0.00507999
0.00602583
0.00725999
0.00876623
0.010527
0.0125247
0.0147414
0.0171588
0.0197575
0.0225169
0.0254151
0.0284298
0.0315384
0.0347186
0.0379492
0.0412105
0.0444839
0.0477528
0.0510026
0.0542207
0.0573972
0.0605246
0.0635979
0.0666141
0.0695706
0.072466
0.0753005
0.0780754
0.080793
0.0834562
0.0860679
0.0886307
0.0911469
0.0936191
0.0960492
0.0984399
0.100794
0.103115
0.105409
0.107679
0.109932
0.112173
0.114407
0.116639
0.118873
0.121114
0.123365
0.125631
0.127913
0.130213
0.13253
0.134865
0.137217
0.139581
0.141956
0.144337
0.14672
0.1491
0.151474
0.153836
0.156184
0.158512
0.160819
0.163102
0.165359
0.16759
0.169795
0.171976
0.174135
0.176272
0.17839
0.180491
0.182577
0.184649
0.186709
0.188759
0.190801
0.192836
0.194866
0.196893
0.198921
0.200951
0.202986
0.205029
0.207082
0.209148
0.211228
0.213325
0.215441
0.217579
0.219739
0.221924
0.224139
0.226388
0.228674
0.231002
0.233377
0.235807
0.238298
0.240861
0.24351
0.246261
0.249137
0.252168
0.255396
0.258885
0.262732
0.267084
0.272181
0.2784
0.286333
0.296841
0.311064
0.330278
0.355509
0.386844
0.422391
0.456693
0.472307
0.483278
0.493039
0.503017
0.513834
0.525512
0.537448
0.548453
0.557384
0.562132
0.562492
0.5625
0.5625
0.5625
0.562499
0.562499
0.562493
0.562488
0.562487
0.562259
0.562048
0.55346
0.539344
0.491282
0.470253
0.448108
0.429511
0.423086
0.450605
0.518664
0.557073
0.00652643
0.00722046
0.00820843
0.00947671
0.0110094
0.0127911
0.0148065
0.0170395
0.0194733
0.0220895
0.0248678
0.0277869
0.0308245
0.0339579
0.0371648
0.0404238
0.0437146
0.0470181
0.050317
0.0535962
0.0568423
0.0600446
0.0631951
0.0662874
0.0693163
0.0722778
0.07517
0.0779934
0.0807503
0.0834442
0.0860792
0.0886591
0.0911869
0.0936652
0.0960957
0.0984802
0.100821
0.10312
0.105383
0.107613
0.109819
0.112005
0.114178
0.116345
0.118511
0.120682
0.122864
0.125061
0.127278
0.129517
0.131781
0.134071
0.136386
0.138724
0.141082
0.143456
0.145842
0.148234
0.150628
0.153017
0.155397
0.157762
0.160109
0.162432
0.164729
0.166998
0.169237
0.171447
0.17363
0.175788
0.177924
0.18004
0.182138
0.184221
0.18629
0.188346
0.190392
0.192429
0.194458
0.196482
0.198503
0.200525
0.202549
0.204581
0.206623
0.208677
0.210746
0.212833
0.214942
0.217074
0.219233
0.221419
0.223633
0.225883
0.228175
0.230513
0.232903
0.235351
0.237866
0.240458
0.243142
0.245934
0.248858
0.251943
0.255232
0.258787
0.262701
0.26712
0.272273
0.278531
0.28648
0.297013
0.311379
0.331119
0.357725
0.391932
0.432675
0.476021
0.515105
0.521911
0.527726
0.533226
0.53874
0.544171
0.54928
0.553838
0.557677
0.561001
0.56244
0.562499
0.5625
0.5625
0.5625
0.5625
0.5625
0.5625
0.5625
0.5625
0.562499
0.562498
0.562436
0.555996
0.496521
0.477828
0.458674
0.443864
0.445106
0.483348
0.539025
0.560036
0.00882243
0.00954613
0.0105614
0.0118538
0.0134087
0.015212
0.0172494
0.0195061
0.0219656
0.0246099
0.0274189
0.0303712
0.0334444
0.0366156
0.0398625
0.0431632
0.0464971
0.0498444
0.0531875
0.0565104
0.0597992
0.0630422
0.0662296
0.0693519
0.0724012
0.075372
0.078262
0.0810721
0.0838063
0.0864704
0.0890705
0.0916121
0.0940989
0.0965332
0.098916
0.101248
0.10353
0.105765
0.107957
0.110112
0.112238
0.114342
0.116432
0.118516
0.120602
0.122695
0.124803
0.126932
0.129088
0.131275
0.133496
0.135751
0.13804
0.140362
0.142712
0.145087
0.14748
0.149885
0.152296
0.154707
0.15711
0.1595
0.161871
0.164216
0.166532
0.168815
0.171065
0.173281
0.175466
0.177623
0.179756
0.181869
0.183963
0.186042
0.188107
0.190159
0.1922
0.194231
0.196252
0.198268
0.200279
0.202291
0.204308
0.206332
0.208369
0.210421
0.212492
0.214586
0.216704
0.218852
0.22103
0.223243
0.225486
0.227774
0.230112
0.232506
0.234961
0.237488
0.240097
0.2428
0.245616
0.248568
0.251686
0.255009
0.258598
0.262542
0.266976
0.272117
0.27831
0.286109
0.29638
0.310392
0.329819
0.356475
0.391544
0.434147
0.479615
0.519507
0.546514
0.558788
0.561943
0.562453
0.562497
0.562467
0.562362
0.562307
0.561975
0.562418
0.562498
0.5625
0.5625
0.5625
0.5625
0.5625
0.5625
0.5625
0.5625
0.5625
0.5625
0.5625
0.5625
0.524768
0.501319
0.486108
0.47016
0.46192
0.473884
0.515919
0.551768
0.561486
0.0112566
0.0120026
0.0130405
0.0143563
0.0159366
0.0177681
0.0198372
0.0221293
0.024628
0.0273152
0.0301704
0.033172
0.0362971
0.0395229
0.0428268
0.0461865
0.0495811
0.0529909
0.0563977
0.0597851
0.0631384
0.0664438
0.0696873
0.0728556
0.0759374
0.0789248
0.0818148
0.084609
0.0873142
0.08994
0.0924963
0.0949914
0.0974301
0.0998143
0.102143
0.104416
0.10663
0.108789
0.110897
0.112961
0.11499
0.116993
0.118981
0.120963
0.122947
0.124943
0.126959
0.129003
0.131083
0.133203
0.135368
0.13758
0.139838
0.14214
0.144481
0.146857
0.14926
0.151683
0.154119
0.156558
0.158993
0.161416
0.16382
0.166196
0.168544
0.170858
0.173129
0.175354
0.177542
0.179698
0.181829
0.183938
0.186031
0.188107
0.19017
0.192219
0.194255
0.196278
0.19829
0.200294
0.202292
0.204289
0.206291
0.208302
0.210328
0.212373
0.21444
0.216535
0.218661
0.22082
0.223016
0.225253
0.227533
0.229858
0.232242
0.234691
0.237216
0.239826
0.242535
0.24536
0.248324
0.251455
0.254793
0.258393
0.262339
0.266756
0.271841
0.27791
0.28547
0.295325
0.308695
0.32729
0.353158
0.388003
0.431523
0.478868
0.51996
0.546145
0.558172
0.562145
0.562493
0.5625
0.5625
0.5625
0.562499
0.562499
0.562499
0.562499
0.5625
0.5625
0.5625
0.5625
0.5625
0.5625
0.5625
0.5625
0.5625
0.5625
0.5625
0.5625
0.562367
0.533383
0.510509
0.497695
0.486499
0.486201
0.506407
0.540003
0.558146
0.562113
0.013781
0.0145474
0.0156094
0.0169541
0.0185687
0.0204404
0.0225559
0.0249002
0.0274566
0.0302061
0.0331276
0.0361989
0.0393968
0.0426983
0.0460805
0.0495215
0.0530003
0.0564978
0.0599959
0.0634777
0.0669268
0.0703248
0.0736526
0.0768919
0.0800265
0.0830442
0.0859394
0.0887148
0.0913814
0.0939556
0.0964546
0.0988914
0.101273
0.103601
0.105871
0.108077
0.110215
0.112285
0.114292
0.116243
0.118151
0.120029
0.121888
0.123742
0.1256
0.127473
0.129372
0.131307
0.133288
0.135323
0.137417
0.139574
0.141792
0.14407
0.146401
0.148779
0.151197
0.153643
0.156111
0.158588
0.161067
0.163536
0.165986
0.168424
0.170834
0.173197
0.175505
0.177751
0.17994
0.182092
0.184215
0.186317
0.188403
0.190475
0.192534
0.194579
0.196609
0.198623
0.200623
0.202611
0.204591
0.206568
0.208549
0.210541
0.21255
0.214582
0.216642
0.218735
0.220864
0.223034
0.225247
0.227508
0.229821
0.232182
0.234613
0.237122
0.239721
0.242422
0.245243
0.248204
0.251334
0.254669
0.258264
0.262193
0.266572
0.271581
0.277503
0.284792
0.294174
0.306781
0.32427
0.348811
0.382586
0.426174
0.475315
0.518776
0.545902
0.557632
0.561309
0.562464
0.5625
0.5625
0.5625
0.5625
0.5625
0.5625
0.5625
0.5625
0.5625
0.5625
0.5625
0.5625
0.5625
0.5625
0.5625
0.5625
0.5625
0.5625
0.5625
0.5625
0.562077
0.542325
0.522561
0.512873
0.507343
0.513527
0.533621
0.55319
0.560866
0.56236
0.016356
0.0171444
0.0182368
0.0196206
0.0212835
0.0232129
0.0253951
0.0278143
0.0304525
0.0332893
0.0363027
0.0394695
0.0427663
0.0461699
0.0496577
0.0532088
0.0568034
0.0604233
0.0640517
0.0676705
0.071259
0.0747938
0.0782501
0.0816023
0.0848258
0.0879
0.0908127
0.0935658
0.0961777
0.0986774
0.101096
0.103456
0.105769
0.108033
0.11024
0.112375
0.114427
0.116393
0.118275
0.120085
0.12184
0.123556
0.125252
0.126941
0.128637
0.130352
0.132099
0.133892
0.135744
0.137667
0.139669
0.141753
0.14392
0.146167
0.148486
0.150868
0.153305
0.155783
0.158293
0.160823
0.16336
0.165893
0.168435
0.170965
0.173457
0.175891
0.17825
0.180525
0.182714
0.184857
0.186968
0.18906
0.191139
0.193209
0.195267
0.197311
0.199338
0.201344
0.203332
0.205301
0.207257
0.209207
0.211158
0.213121
0.215105
0.217117
0.219163
0.22125
0.223382
0.225561
0.227791
0.230076
0.232423
0.234833
0.237314
0.239887
0.242566
0.245366
0.24831
0.251424
0.254745
0.258321
0.262225
0.26656
0.27149
0.277266
0.284295
0.293223
0.305069
0.321385
0.34434
0.37645
0.419212
0.469545
0.515857
0.545154
0.557603
0.561405
0.56211
0.562496
0.5625
0.5625
0.5625
0.5625
0.5625
0.5625
0.5625
0.5625
0.5625
0.5625
0.5625
0.5625
0.5625
0.5625
0.5625
0.5625
0.5625
0.5625
0.5625
0.562499
0.56213
0.549496
0.534863
0.529089
0.528409
0.536491
0.549894
0.558962
0.561912
0.562451
0.0189471
0.0197621
0.0208943
0.022332
0.0240627
0.0260735
0.0283495
0.0308733
0.0336246
0.0365809
0.0397185
0.0430131
0.0464411
0.0499798
0.0536081
0.0573073
0.0610603
0.0648517
0.0686647
0.0724787
0.0762699
0.0800105
0.0836684
0.0872082
0.0906949
0.0939991
0.0969649
0.0996971
0.102225
0.104603
0.106892
0.109134
0.11135
0.113537
0.115674
0.117729
0.119678
0.121507
0.123219
0.12483
0.126363
0.127848
0.129311
0.13077
0.13224
0.133734
0.135269
0.136862
0.138534
0.1403
0.142173
0.144158
0.146256
0.14846
0.150762
0.153149
0.15561
0.15813
0.160696
0.163295
0.165914
0.168548
0.171221
0.173887
0.17652
0.179085
0.181543
0.183866
0.186052
0.188177
0.190268
0.192344
0.194417
0.196488
0.198553
0.200605
0.202635
0.204638
0.206613
0.208559
0.210483
0.212391
0.214297
0.216214
0.218155
0.220132
0.222154
0.224227
0.226354
0.228538
0.230783
0.233093
0.235474
0.237933
0.240463
0.243104
0.245874
0.248791
0.251882
0.255182
0.258736
0.262612
0.266906
0.271767
0.277422
0.284233
0.292775
0.303958
0.319197
0.340572
0.370763
0.412028
0.462701
0.511609
0.543535
0.557202
0.561375
0.562337
0.562493
0.5625
0.5625
0.5625
0.5625
0.5625
0.5625
0.5625
0.5625
0.5625
0.5625
0.5625
0.5625
0.5625
0.5625
0.5625
0.5625
0.5625
0.5625
0.5625
0.5625
0.5625
0.562126
0.554431
0.545244
0.542842
0.54452
0.55068
0.557537
0.561213
0.562293
0.562483
0.0215229
0.0223712
0.0235564
0.0250675
0.0268919
0.0290155
0.0314214
0.0340887
0.0369937
0.0401104
0.0434127
0.0468753
0.0504749
0.0541907
0.0580049
0.0619031
0.0658735
0.0699023
0.0739733
0.0780669
0.0821589
0.0862187
0.0903664
0.0947548
0.0991546
0.10339
0.10714
0.109805
0.11208
0.114086
0.115982
0.117875
0.119816
0.121802
0.123783
0.125684
0.127435
0.129001
0.130382
0.131602
0.132706
0.133754
0.134791
0.135842
0.136923
0.138047
0.139229
0.140495
0.141873
0.143389
0.145059
0.146889
0.148878
0.151015
0.153286
0.155674
0.158162
0.160733
0.163371
0.166062
0.168792
0.171607
0.17447
0.177363
0.180257
0.183094
0.185778
0.188209
0.190385
0.192468
0.19451
0.196549
0.198606
0.200682
0.202765
0.204838
0.206884
0.208892
0.210856
0.212774
0.214648
0.216491
0.218319
0.220155
0.222022
0.223937
0.225912
0.227954
0.230067
0.23225
0.234506
0.236838
0.239253
0.241761
0.244368
0.247083
0.249952
0.253001
0.256266
0.259792
0.263641
0.267905
0.272718
0.278291
0.28495
0.293214
0.3039
0.318288
0.338322
0.366704
0.406227
0.456543
0.507339
0.541651
0.556572
0.561182
0.562279
0.562477
0.562499
0.5625
0.5625
0.5625
0.5625
0.5625
0.5625
0.5625
0.5625
0.5625
0.5625
0.5625
0.5625
0.5625
0.5625
0.5625
0.5625
0.5625
0.5625
0.5625
0.5625
0.562499
0.560977
0.557484
0.552755
0.552279
0.554155
0.557658
0.560658
0.562045
0.562429
0.562494
0.0240547
0.0249449
0.0262001
0.0278101
0.0297622
0.0320406
0.0346243
0.037487
0.0405987
0.0439282
0.0474463
0.0511271
0.0549491
0.0588959
0.0629563
0.0671228
0.0713876
0.075742
0.0801765
0.0846791
0.0892324
0.0940872
0.0995444
0.105469
0.111927
0.118494
0.124648
0.12786
0.129599
0.130673
0.131589
0.132627
0.133941
0.135541
0.137308
0.139028
0.140488
0.141595
0.142335
0.142752
0.142949
0.143075
0.143237
0.143478
0.143806
0.144221
0.144739
0.145393
0.146231
0.147291
0.148597
0.150153
0.151949
0.153962
0.156169
0.15854
0.161052
0.163682
0.166411
0.169223
0.172105
0.175152
0.178323
0.181623
0.185041
0.188506
0.191779
0.194473
0.196629
0.198611
0.200536
0.202485
0.204501
0.206591
0.208724
0.210854
0.212948
0.214985
0.216949
0.21883
0.220626
0.222348
0.224025
0.225701
0.227417
0.229205
0.231083
0.233059
0.235131
0.237297
0.239553
0.2419
0.244346
0.246901
0.249583
0.252372
0.255355
0.258565
0.262047
0.265861
0.270094
0.274876
0.280403
0.286987
0.295108
0.305521
0.319397
0.338543
0.365604
0.403684
0.453394
0.505059
0.540587
0.556154
0.561022
0.562223
0.562461
0.562497
0.5625
0.5625
0.5625
0.5625
0.5625
0.5625
0.5625
0.5625
0.5625
0.5625
0.5625
0.5625
0.5625
0.5625
0.5625
0.5625
0.5625
0.5625
0.5625
0.5625
0.5625
0.562499
0.561793
0.559984
0.557644
0.557731
0.55897
0.560642
0.56184
0.562343
0.562476
0.562498
0.0265237
0.0274722
0.028822
0.0305626
0.0326783
0.0351479
0.037943
0.0410996
0.0445073
0.0481178
0.0519162
0.0558782
0.0599875
0.0642362
0.068622
0.0731444
0.077806
0.082612
0.0875708
0.0926926
0.0981697
0.104913
0.112927
0.122316
0.133418
0.144427
0.156327
0.160615
0.161226
0.159829
0.158295
0.157306
0.157277
0.158298
0.160216
0.163317
0.164539
0.164915
0.16442
0.163121
0.161257
0.159315
0.157596
0.156174
0.155004
0.15403
0.153243
0.152693
0.152468
0.152646
0.153258
0.154299
0.155734
0.157513
0.159586
0.161905
0.164427
0.167119
0.169957
0.172926
0.176087
0.179468
0.183113
0.187094
0.191505
0.196337
0.201069
0.204258
0.206348
0.20804
0.209652
0.211361
0.213275
0.215411
0.21769
0.219985
0.222222
0.224363
0.226377
0.228235
0.229913
0.231411
0.232777
0.234117
0.235517
0.237041
0.238722
0.240563
0.242552
0.244674
0.246913
0.249265
0.251731
0.254326
0.257074
0.260003
0.263072
0.266446
0.270182
0.274362
0.27911
0.284622
0.291204
0.299338
0.309766
0.323615
0.342595
0.369291
0.406936
0.456481
0.507594
0.541794
0.55645
0.561036
0.562203
0.562451
0.562494
0.5625
0.5625
0.5625
0.5625
0.5625
0.5625
0.5625
0.5625
0.5625
0.5625
0.5625
0.5625
0.5625
0.5625
0.5625
0.5625
0.5625
0.5625
0.5625
0.5625
0.5625
0.5625
0.562498
0.562189
0.561356
0.560284
0.560447
0.5611
0.561817
0.562269
0.562446
0.562492
0.562499
0.0289131
0.0299448
0.0314272
0.0333499
0.0356937
0.0384285
0.041517
0.0449636
0.0486772
0.0526049
0.0569737
0.0612987
0.0657794
0.0704198
0.075229
0.0802231
0.0854267
0.0908751
0.0966178
0.102724
0.11073
0.12116
0.134687
0.149642
0.167667
0.181304
0.198255
0.201811
0.201523
0.196157
0.191237
0.187611
0.1861
0.187156
0.192838
0.201211
0.204693
0.204742
0.202741
0.198596
0.19261
0.186529
0.1813
0.176983
0.173285
0.169934
0.166825
0.164044
0.161816
0.160331
0.159658
0.159763
0.160553
0.161917
0.163747
0.165953
0.168461
0.171217
0.174188
0.177361
0.180839
0.184678
0.189
0.19401
0.200094
0.207446
0.215127
0.218682
0.220562
0.22148
0.222388
0.223574
0.225294
0.227615
0.230805
0.23385
0.236427
0.238831
0.241023
0.242929
0.244461
0.245555
0.246273
0.246919
0.247678
0.248691
0.250013
0.251632
0.253501
0.25557
0.257794
0.260148
0.262628
0.265255
0.268064
0.271105
0.274406
0.277978
0.282038
0.286722
0.292235
0.298902
0.307247
0.318085
0.33264
0.352686
0.380749
0.420138
0.470536
0.518024
0.546433
0.5578
0.561317
0.562241
0.562452
0.562493
0.562499
0.5625
0.5625
0.5625
0.5625
0.5625
0.5625
0.5625
0.5625
0.5625
0.5625
0.5625
0.5625
0.5625
0.5625
0.5625
0.5625
0.5625
0.5625
0.5625
0.5625
0.5625
0.5625
0.562498
0.562364
0.562004
0.561547
0.561665
0.561969
0.562256
0.562421
0.562482
0.562497
0.5625
0.0312056
0.0323516
0.034016
0.036191
0.0388523
0.041956
0.0454468
0.0492919
0.0534034
0.0577278
0.0624639
0.067367
0.0725925
0.0777455
0.083108
0.0887379
0.094704
0.101104
0.108082
0.116777
0.129218
0.147467
0.170039
0.188411
0.21048
0.217488
0.223196
0.260786
0.274733
0.213656
0.210201
0.207319
0.206425
0.209125
0.21967
0.234125
0.239304
0.241625
0.240969
0.236877
0.227696
0.217722
0.209595
0.203148
0.197477
0.191876
0.186052
0.180176
0.174881
0.170766
0.168066
0.166721
0.166535
0.167282
0.16876
0.170804
0.173287
0.176123
0.179262
0.182696
0.186553
0.190936
0.196064
0.202344
0.210746
0.221388
0.232469
0.235716
0.237245
0.236658
0.236578
0.237038
0.238605
0.241553
0.248955
0.253757
0.257324
0.260252
0.262872
0.265036
0.266494
0.266922
0.266226
0.265473
0.26499
0.265088
0.265855
0.26721
0.269012
0.271122
0.273437
0.275887
0.27845
0.281159
0.284091
0.287337
0.290986
0.295046
0.2997
0.305286
0.312191
0.321055
0.332921
0.34937
0.372603
0.405705
0.450669
0.499739
0.535751
0.553301
0.559753
0.561764
0.562323
0.562463
0.562493
0.562499
0.5625
0.5625
0.5625
0.5625
0.5625
0.5625
0.5625
0.5625
0.5625
0.5625
0.5625
0.5625
0.5625
0.5625
0.5625
0.5625
0.5625
0.5625
0.5625
0.5625
0.5625
0.5625
0.5625
0.562498
0.562439
0.562291
0.562109
0.562176
0.562306
0.562415
0.562473
0.562494
0.562499
0.5625
0.033389
0.0346882
0.0366006
0.0391271
0.0422379
0.0458631
0.0499092
0.0542979
0.0589384
0.0637985
0.0690067
0.0743799
0.0802043
0.08665
0.0927613
0.0992797
0.106373
0.114273
0.123352
0.138033
0.158672
0.189184
0.218719
0.230595
0.239383
0.425186
0.554365
0.557361
0.547552
0.52248
0.285333
0.222682
0.221568
0.226469
0.245038
0.253916
0.336295
0.505847
0.481043
0.307487
0.240205
0.233347
0.228086
0.223993
0.219868
0.214705
0.207855
0.199338
0.190484
0.183075
0.177833
0.174708
0.173358
0.173401
0.174506
0.17641
0.178917
0.181892
0.185259
0.189017
0.19327
0.198171
0.204033
0.211525
0.222581
0.23537
0.245079
0.276965
0.312092
0.25465
0.252977
0.252043
0.253317
0.259037
0.277535
0.285909
0.289924
0.293766
0.297836
0.300784
0.302585
0.301943
0.29721
0.293007
0.289641
0.287797
0.287584
0.288625
0.290502
0.292885
0.295542
0.298311
0.301122
0.304026
0.307229
0.310916
0.315247
0.320422
0.326535
0.334149
0.344305
0.358527
0.379396
0.410557
0.453411
0.499491
0.533623
0.551368
0.558643
0.561263
0.562135
0.562402
0.562476
0.562495
0.562499
0.5625
0.5625
0.5625
0.5625
0.5625
0.5625
0.5625
0.5625
0.5625
0.5625
0.5625
0.5625
0.5625
0.5625
0.5625
0.5625
0.5625
0.5625
0.5625
0.5625
0.5625
0.5625
0.5625
0.5625
0.562494
0.562471
0.562415
0.562347
0.562379
0.562431
0.562471
0.562491
0.562498
0.5625
0.5625
0.0354566
0.0369565
0.0392071
0.0422338
0.0460016
0.0503884
0.0552186
0.060355
0.065707
0.0712598
0.0770819
0.083097
0.0895479
0.0967443
0.104975
0.112834
0.121733
0.132261
0.147082
0.175792
0.205145
0.243891
0.256173
0.406364
0.553117
0.561198
0.562433
0.562468
0.562413
0.562207
0.556247
0.333372
0.244016
0.25041
0.274477
0.501648
0.561781
0.562325
0.561909
0.554876
0.307092
0.24455
0.242135
0.24127
0.240021
0.2371
0.231057
0.220457
0.206859
0.195502
0.187577
0.182728
0.180328
0.179799
0.180677
0.182596
0.185281
0.188529
0.192218
0.196345
0.200938
0.20617
0.212418
0.220727
0.234575
0.247183
0.40331
0.559382
0.559817
0.546737
0.375952
0.268511
0.268424
0.277561
0.302574
0.458078
0.559869
0.54268
0.561795
0.561689
0.554832
0.439956
0.313814
0.311474
0.30851
0.307044
0.307751
0.309973
0.313114
0.31677
0.320645
0.324499
0.328168
0.331728
0.335805
0.340819
0.347115
0.355191
0.365925
0.380634
0.401487
0.431302
0.470639
0.510408
0.538482
0.552836
0.558827
0.561159
0.56203
0.562344
0.562452
0.562487
0.562497
0.562499
0.5625
0.5625
0.5625
0.5625
0.5625
0.5625
0.5625
0.5625
0.5625
0.5625
0.5625
0.5625
0.5625
0.5625
0.5625
0.5625
0.5625
0.5625
0.5625
0.5625
0.5625
0.5625
0.5625
0.5625
0.5625
0.562498
0.562489
0.562469
0.562443
0.562456
0.562476
0.56249
0.562497
0.562499
0.5625
0.5625
0.0374057
0.0391618
0.0418758
0.0456388
0.0504198
0.0559827
0.0619629
0.06815
0.0744578
0.080892
0.0875184
0.0943804
0.101723
0.109853
0.119441
0.131164
0.143456
0.159596
0.196354
0.250795
0.273707
0.294577
0.536469
0.560455
0.562396
0.56249
0.5625
0.5625
0.5625
0.562498
0.562448
0.541695
0.408709
0.281659
0.39361
0.552681
0.562425
0.562499
0.562498
0.562454
0.55152
0.282105
0.376664
0.44216
0.420618
0.32248
0.269015
0.22525
0.213133
0.202706
0.194641
0.189326
0.186563
0.18592
0.186941
0.189217
0.192392
0.196171
0.200309
0.20482
0.209625
0.214848
0.220838
0.229157
0.244547
0.470938
0.56087
0.562482
0.56249
0.562362
0.558863
0.339085
0.280127
0.303613
0.343866
0.501775
0.562116
0.562395
0.562496
0.562496
0.562478
0.562059
0.560188
0.46329
0.321271
0.321822
0.325275
0.330026
0.335541
0.341525
0.347748
0.353905
0.359553
0.364492
0.371052
0.380135
0.392464
0.409112
0.43143
0.460055
0.492773