/*--------------------------------*- C++ -*----------------------------------*\
| =========                 |                                                 |
| \\      /  F ield         | OpenFOAM: The Open Source CFD Toolbox           |
|  \\    /   O peration     | Version:  2.1.0                                 |
|   \\  /    A nd           | Web:      www.OpenFOAM.org                      |
|    \\/     M anipulation  |                                                 |
\*---------------------------------------------------------------------------*/
FoamFile
{
    version     2.0;
    format      ascii;
    class       volScalarField;
    location    "32120";
    object      kr_w;
}
// * * * * * * * * * * * * * * * * * * * * * * * * * * * * * * * * * * * * * //

dimensions      [0 0 0 0 0 0 0];

internalField   nonuniform List<scalar> 
15000
(
0.5625
0.562498
0.562452
0.561412
0.555716
0.542152
0.522227
0.4995
0.476515
0.454483
0.433855
0.414733
0.397078
0.380798
0.365784
0.351927
0.339128
0.327289
0.316324
0.306154
0.296706
0.287911
0.279708
0.272043
0.264862
0.25812
0.251772
0.245778
0.240101
0.23471
0.229578
0.224681
0.219998
0.21551
0.211202
0.207057
0.203063
0.199207
0.195477
0.191863
0.188355
0.184946
0.181627
0.178393
0.175237
0.172155
0.169141
0.166193
0.163306
0.160479
0.157709
0.154996
0.152338
0.149736
0.147188
0.144696
0.142259
0.139876
0.137548
0.135276
0.133058
0.130894
0.128784
0.126726
0.124718
0.122761
0.120851
0.118987
0.117167
0.115389
0.113652
0.111953
0.110289
0.10866
0.107063
0.105497
0.10396
0.10245
0.100967
0.0995073
0.0980713
0.0966574
0.0952645
0.0938918
0.0925385
0.0912035
0.0898863
0.0885862
0.0873032
0.086037
0.0847873
0.0835535
0.0823354
0.081133
0.0799469
0.0787773
0.0776243
0.0764883
0.0753696
0.0742687
0.0731861
0.0721226
0.0710789
0.0700552
0.0690524
0.068071
0.0671115
0.0661742
0.0652596
0.0643676
0.0634979
0.0626496
0.061822
0.0610139
0.0602235
0.0594492
0.0586894
0.0579428
0.0572082
0.0564826
0.0557599
0.0550291
0.0542739
0.0534724
0.0525996
0.0516339
0.050574
0.0494681
0.0484324
0.0475946
0.0469662
0.0465137
0.0461721
0.0458264
0.0454725
0.0451061
0.0447221
0.0443169
0.0438862
0.0434239
0.04292
0.0423582
0.0417147
0.0409517
0.0400073
0.0387584
0.0368292
0.032591
0.021323
0.0053767
0.562498
0.562492
0.562252
0.559925
0.55162
0.53586
0.515135
0.492592
0.470189
0.448823
0.428818
0.410243
0.393052
0.377162
0.362475
0.348894
0.336327
0.324686
0.313891
0.303866
0.294544
0.285859
0.277754
0.270176
0.263073
0.256401
0.250116
0.244179
0.238554
0.233212
0.228125
0.22327
0.218627
0.214179
0.209909
0.205801
0.201844
0.198023
0.194327
0.190746
0.18727
0.183893
0.180605
0.177401
0.174275
0.171221
0.168234
0.165311
0.162448
0.159642
0.156892
0.154198
0.151558
0.148972
0.146439
0.14396
0.141534
0.139162
0.136844
0.13458
0.13237
0.130214
0.12811
0.126058
0.124057
0.122105
0.1202
0.118341
0.116527
0.114754
0.113021
0.111326
0.109667
0.108042
0.106449
0.104886
0.103353
0.101846
0.100366
0.0989093
0.0974759
0.0960644
0.0946737
0.0933029
0.0919507
0.0906161
0.0892985
0.0879976
0.0867131
0.0854446
0.0841914
0.0829525
0.081728
0.0805181
0.0793229
0.0781424
0.0769765
0.0758252
0.0746885
0.0735669
0.0724608
0.0713701
0.0702948
0.0692349
0.0681904
0.0671611
0.0661463
0.0651454
0.064157
0.0631791
0.0622091
0.0612436
0.0602782
0.0593072
0.0583236
0.0573209
0.0562943
0.0552433
0.0541708
0.0530791
0.0519604
0.0507913
0.0495303
0.0481192
0.0464896
0.044581
0.0423885
0.0400493
0.0379213
0.0364181
0.0354403
0.0348462
0.0344918
0.0342534
0.0341226
0.0340769
0.0340663
0.034071
0.0341044
0.0341908
0.0343399
0.0345307
0.0347189
0.0348375
0.0347947
0.0344404
0.0333592
0.0297988
0.0189952
0.00445183
0.562454
0.562258
0.560925
0.555633
0.543747
0.525957
0.504972
0.483113
0.461686
0.441292
0.422153
0.404315
0.387741
0.372366
0.35811
0.344892
0.332632
0.321252
0.310681
0.300851
0.291698
0.283163
0.275192
0.267733
0.260738
0.254164
0.247968
0.242112
0.236562
0.231289
0.226268
0.221476
0.216894
0.212504
0.20829
0.204238
0.200333
0.196564
0.192918
0.189386
0.185959
0.182628
0.179385
0.176224
0.173139
0.170123
0.167173
0.164283
0.161452
0.158675
0.155953
0.153283
0.150665
0.148099
0.145584
0.14312
0.140708
0.138348
0.136041
0.133787
0.131586
0.129438
0.127343
0.125298
0.123304
0.121359
0.119461
0.117609
0.115802
0.114036
0.11231
0.110621
0.108968
0.10735
0.105763
0.104207
0.102679
0.101179
0.0997039
0.0982527
0.0968241
0.0954171
0.0940304
0.0926628
0.0913131
0.0899804
0.0886639
0.0873634
0.0860782
0.0848077
0.0835513
0.0823082
0.0810779
0.0798605
0.078656
0.0774642
0.0762847
0.0751172
0.0739615
0.0728178
0.0716858
0.0705649
0.0694547
0.0683543
0.0672629
0.066179
0.0651007
0.0640254
0.0629494
0.0618675
0.060773
0.0596567
0.0585059
0.0573035
0.0560293
0.0546638
0.0531959
0.051633
0.0500037
0.0483415
0.0466514
0.0448975
0.0430065
0.0408761
0.0383888
0.0354422
0.0320307
0.0284039
0.0252607
0.023501
0.0224792
0.021891
0.021573
0.0215014
0.0216817
0.0220836
0.0225501
0.0230339
0.0235847
0.0242809
0.0251648
0.0262036
0.0273262
0.0284271
0.0293745
0.0299828
0.0297837
0.0268648
0.0164861
0.00353676
0.56147
0.560021
0.555751
0.546395
0.531524
0.51282
0.492376
0.471665
0.451503
0.432282
0.414162
0.397186
0.381334
0.366564
0.352815
0.340025
0.328128
0.31706
0.306757
0.297161
0.288213
0.279861
0.272053
0.264741
0.25788
0.251428
0.245343
0.239589
0.234135
0.228952
0.224017
0.219308
0.214805
0.210491
0.206351
0.20237
0.198535
0.194834
0.191255
0.187787
0.184423
0.181152
0.177968
0.174862
0.171829
0.168863
0.165958
0.163112
0.16032
0.15758
0.154891
0.152251
0.149659
0.147116
0.144621
0.142175
0.139779
0.137433
0.135138
0.132895
0.130704
0.128566
0.126479
0.124443
0.122457
0.120521
0.118632
0.116789
0.11499
0.113233
0.111516
0.109836
0.108192
0.106582
0.105004
0.103456
0.101937
0.100445
0.0989773
0.0975334
0.0961118
0.0947113
0.0933305
0.091968
0.0906224
0.089293
0.087979
0.0866799
0.0853951
0.0841235
0.0828648
0.0816176
0.0803817
0.0791568
0.0779429
0.0767393
0.0755453
0.0743604
0.0731842
0.0720164
0.070856
0.0697021
0.0685531
0.0674076
0.0662632
0.0651173
0.0639658
0.0628035
0.0616229
0.0604138
0.0591621
0.0578468
0.0564386
0.0548978
0.0531777
0.0512366
0.0490616
0.0466989
0.0442606
0.041871
0.0395588
0.0372599
0.0348536
0.0321893
0.0291055
0.025472
0.0212988
0.0169411
0.0134254
0.0122022
0.0114914
0.0110255
0.0107422
0.0107412
0.0110937
0.0118502
0.0126259
0.013346
0.0141377
0.0151736
0.0165658
0.0182658
0.0201841
0.0221768
0.0240589
0.0255896
0.0262177
0.0238113
0.0137936
0.00265737
0.556098
0.552087
0.544243
0.531879
0.515764
0.497404
0.478139
0.458872
0.440123
0.42217
0.405143
0.389092
0.374021
0.359908
0.346715
0.334396
0.322902
0.312181
0.30218
0.292847
0.284132
0.275988
0.268368
0.261226
0.254521
0.24821
0.242256
0.236624
0.231284
0.226211
0.22138
0.21677
0.212364
0.208144
0.204095
0.200202
0.196453
0.192835
0.189337
0.18595
0.182663
0.179466
0.176353
0.173315
0.170346
0.16744
0.164592
0.161798
0.159054
0.156358
0.153708
0.151102
0.148541
0.146025
0.143553
0.141127
0.138748
0.136417
0.134136
0.131904
0.129724
0.127596
0.125519
0.123492
0.121517
0.11959
0.117711
0.115879
0.114091
0.112344
0.110637
0.108969
0.107336
0.105737
0.104169
0.102632
0.101124
0.0996414
0.0981838
0.0967494
0.0953369
0.0939449
0.0925718
0.0912161
0.0898764
0.0885519
0.0872418
0.0859454
0.0846616
0.0833895
0.0821287
0.0808781
0.0796369
0.0784049
0.0771813
0.0759654
0.0747563
0.0735531
0.0723551
0.0711613
0.0699702
0.0687799
0.0675883
0.0663924
0.0651887
0.0639723
0.0627367
0.0614725
0.0601669
0.0588011
0.0573479
0.0557662
0.0539977
0.0519646
0.0495804
0.0467799
0.0435762
0.0401209
0.0367086
0.0336444
0.0309234
0.0283887
0.0258444
0.0230936
0.019955
0.0163085
0.0122253
0.00814777
0.00541572
0.00512679
0.00472946
0.00439517
0.00412905
0.00404741
0.00429309
0.00519832
0.00598354
0.00655142
0.00715999
0.00809386
0.00959007
0.0115654
0.0139407
0.0165698
0.0191975
0.0214978
0.0227904
0.0206457
0.0109486
0.00185489
0.543289
0.537052
0.527105
0.513756
0.497947
0.480738
0.462983
0.445268
0.427962
0.411285
0.39536
0.380249
0.365977
0.352542
0.339927
0.328104
0.317036
0.306683
0.297004
0.287955
0.279493
0.271576
0.264161
0.257207
0.250674
0.244521
0.238715
0.233222
0.228015
0.223068
0.218358
0.213866
0.209573
0.205462
0.201519
0.19773
0.194082
0.190563
0.187162
0.18387
0.180674
0.177567
0.174538
0.171581
0.168689
0.165855
0.163074
0.160341
0.157654
0.155008
0.152403
0.149838
0.147312
0.144825
0.14238
0.139976
0.137615
0.135301
0.133033
0.130814
0.128645
0.126527
0.124459
0.122443
0.120478
0.118562
0.116695
0.114874
0.113098
0.111365
0.109671
0.108015
0.106395
0.104809
0.103255
0.101731
0.100235
0.0987652
0.0973197
0.0958971
0.0944958
0.0931144
0.0917509
0.0904039
0.0890719
0.087754
0.0864492
0.0851565
0.0838751
0.0826036
0.0813412
0.080088
0.0788421
0.0776029
0.0763697
0.0751411
0.0739161
0.0726936
0.0714722
0.0702503
0.0690259
0.0677961
0.0665576
0.0653062
0.0640362
0.0627403
0.0614082
0.060025
0.0585691
0.0570087
0.0552954
0.0533569
0.051091
0.0483692
0.0450636
0.0411127
0.0366175
0.0319251
0.027611
0.0242631
0.0216126
0.0193146
0.0170955
0.0147454
0.0121105
0.00913929
0.00599735
0.00314098
0.00246217
0.000652771
0.000141205
4.75516e-05
0.000125743
0.000352043
0.000785887
0.00378548
0.00383819
0.00373992
0.00372733
0.00404874
0.00513927
0.00685064
0.00915033
0.0120354
0.0151191
0.0179332
0.0196041
0.0173349
0.00805495
0.00117872
0.52442
0.517285
0.506964
0.494059
0.479368
0.46364
0.447466
0.431272
0.415352
0.399898
0.385036
0.37084
0.357354
0.344594
0.332559
0.321235
0.310601
0.300626
0.291279
0.282525
0.274327
0.266648
0.25945
0.252695
0.246346
0.240365
0.234721
0.229383
0.224324
0.21952
0.214948
0.210589
0.206425
0.202439
0.198617
0.194946
0.191414
0.18801
0.184722
0.181539
0.17845
0.175446
0.172517
0.169654
0.166852
0.164102
0.161399
0.158739
0.156117
0.15353
0.150978
0.148458
0.145971
0.143519
0.141101
0.138721
0.13638
0.134082
0.131828
0.129621
0.127463
0.125355
0.123297
0.121292
0.119337
0.117433
0.115578
0.113771
0.112009
0.11029
0.108611
0.106971
0.105366
0.103796
0.102257
0.100748
0.0992665
0.0978112
0.09638
0.0949713
0.0935834
0.0922147
0.0908633
0.0895271
0.0882049
0.0868955
0.0855978
0.0843106
0.0830326
0.0817625
0.0804997
0.0792445
0.0779944
0.0767485
0.0755054
0.0742637
0.0730221
0.071779
0.0705328
0.0692811
0.0680208
0.0667483
0.0654587
0.0641461
0.0628026
0.0614173
0.0599746
0.0584514
0.0568138
0.05501
0.052961
0.0505508
0.0476232
0.0440012
0.0395493
0.0342824
0.0284842
0.0227545
0.01793
0.0149985
0.0129565
0.011278
0.00968782
0.00802977
0.00623234
0.00433445
0.00252172
0.00105431
0.000155141
9.14336e-09
5.70433e-11
1.80352e-13
2.84751e-07
1.55121e-05
2.40454e-05
0.000118407
0.000170102
0.000201585
0.000373279
0.000756539
0.00393049
0.00470651
0.00621223
0.00892586
0.0121037
0.0150631
0.0166735
0.0138011
0.00533264
0.000669638
0.502881
0.495824
0.486066
0.474207
0.460883
0.446657
0.431978
0.417189
0.402544
0.388222
0.374352
0.361021
0.348284
0.336173
0.324701
0.313867
0.30366
0.29406
0.285045
0.276587
0.268656
0.261219
0.254243
0.247693
0.241535
0.235736
0.230266
0.225097
0.220202
0.215558
0.21114
0.206929
0.202908
0.199061
0.195375
0.191837
0.188437
0.185162
0.182001
0.178944
0.175978
0.173093
0.170278
0.167526
0.164827
0.162175
0.159564
0.156987
0.154441
0.151922
0.149429
0.146961
0.144518
0.142103
0.139716
0.137361
0.135041
0.132759
0.130519
0.128323
0.126175
0.124076
0.122028
0.120031
0.118087
0.116195
0.114354
0.112562
0.110816
0.109114
0.107452
0.105829
0.104242
0.102689
0.101167
0.0996752
0.0982107
0.096772
0.0953574
0.0939652
0.0925934
0.0912399
0.0899028
0.0885803
0.0872704
0.0859716
0.0846827
0.0834023
0.0821292
0.080862
0.0795998
0.0783431
0.0770893
0.0758367
0.0745838
0.0733289
0.0720704
0.0708063
0.069534
0.0682506
0.0669521
0.0656335
0.0642885
0.0629089
0.0614838
0.0599975
0.0584271
0.0567382
0.0548788
0.0527695
0.0502906
0.047274
0.0435144
0.0388231
0.0331427
0.0266891
0.0200207
0.0139371
0.00926779
0.00746673
0.00630735
0.00534378
0.00442039
0.00348523
0.00254688
0.00165831
0.000897305
0.000317685
2.2507e-05
4.81842e-07
2.80241e-09
1.16718e-11
2.425e-10
3.58038e-08
7.30739e-08
4.52878e-07
7.11515e-07
8.15698e-07
1.47595e-05
2.7664e-05
0.000568326
0.00152336
0.0055127
0.00769321
0.0103397
0.0128797
0.0138317
0.0100217
0.00308848
0.000337274
0.481144
0.474572
0.465682
0.454982
0.44298
0.430122
0.416776
0.403235
0.389725
0.37642
0.363451
0.350913
0.33887
0.327368
0.316428
0.30606
0.296263
0.287025
0.278332
0.270163
0.262492
0.255293
0.248536
0.24219
0.236226
0.230616
0.225331
0.220345
0.215629
0.211159
0.206911
0.202864
0.199001
0.195307
0.19177
0.18838
0.185125
0.181995
0.178979
0.176063
0.173237
0.170488
0.167806
0.16518
0.162602
0.160063
0.157557
0.155077
0.152619
0.150178
0.147753
0.145344
0.142951
0.140576
0.138223
0.135894
0.133595
0.131329
0.129102
0.126916
0.124775
0.122683
0.120642
0.118654
0.11672
0.11484
0.113013
0.111237
0.109509
0.107826
0.106184
0.104581
0.103014
0.10148
0.0999772
0.0985041
0.0970586
0.0956389
0.0942432
0.0928699
0.091517
0.090182
0.0888624
0.0875559
0.0862606
0.084975
0.0836974
0.082426
0.0811594
0.0798963
0.0786359
0.0773772
0.0761212
0.074863
0.073601
0.0723332
0.0710574
0.0697712
0.0684716
0.0671546
0.0658152
0.064447
0.0630417
0.0615885
0.0600723
0.058471
0.0567514
0.0548638
0.0527319
0.0502396
0.0472194
0.0434551
0.038724
0.0329099
0.0261714
0.0190608
0.0124253
0.00706487
0.00337963
0.00282868
0.00237688
0.00196484
0.00156617
0.00118712
0.000842248
0.000543922
0.000299181
9.20071e-05
3.65867e-06
5.65689e-08
3.90007e-10
1.79598e-12
4.3234e-13
8.7317e-11
2.14162e-10
1.54539e-09
2.37884e-09
2.36848e-09
6.7506e-08
1.24419e-07
3.92663e-06
0.000405606
0.00501469
0.00687284
0.00902893
0.0108924
0.010729
0.00630019
0.00154594
0.000151718
0.460408
0.454417
0.446391
0.436751
0.425907
0.414226
0.402021
0.389551
0.377025
0.36461
0.352438
0.340608
0.329194
0.318246
0.307796
0.297861
0.288445
0.279547
0.271157
0.263258
0.255832
0.248856
0.242306
0.236158
0.230386
0.224969
0.219879
0.215088
0.210568
0.20629
0.202228
0.198361
0.19467
0.191143
0.187769
0.184539
0.181444
0.178475
0.175619
0.172865
0.170198
0.167605
0.165074
0.162595
0.160156
0.157749
0.155366
0.152999
0.150642
0.148292
0.145946
0.143604
0.141266
0.138937
0.136619
0.134318
0.13204
0.129789
0.127571
0.125392
0.123257
0.121169
0.119132
0.11715
0.115224
0.113355
0.111543
0.109784
0.108076
0.106414
0.104795
0.103214
0.101669
0.100156
0.0986745
0.0972221
0.0957975
0.0943989
0.0930251
0.091674
0.090343
0.0890295
0.0877307
0.086444
0.0851668
0.083897
0.0826327
0.0813722
0.0801142
0.078857
0.0775998
0.0763414
0.0750839
0.0738205
0.0725492
0.071268
0.0699743
0.0686652
0.0673369
0.0659843
0.0646013
0.0631795
0.0617085
0.0601739
0.0585549
0.0568205
0.0549243
0.0527954
0.050326
0.0473569
0.0436738
0.0390349
0.0332701
0.0264625
0.019133
0.0122172
0.0066852
0.00302053
0.00102752
0.000229441
3.40863e-05
2.85151e-06
1.72047e-07
2.03335e-06
8.40657e-06
1.17955e-05
3.21438e-05
5.02892e-06
1.22842e-07
6.53196e-10
3.86402e-12
1.95717e-14
9.39848e-16
2.41071e-13
6.66911e-13
5.20311e-12
7.43721e-12
6.77996e-12
2.06336e-10
3.81268e-10
1.84036e-08
0.00260459
0.00457335
0.0060216
0.00770358
0.00864416
0.00729496
0.00331243
0.000678318
6.21495e-05
0.44113
0.435679
0.428407
0.419658
0.409773
0.399064
0.387804
0.376226
0.364528
0.352871
0.341385
0.330172
0.319311
0.308856
0.298844
0.289298
0.280229
0.271638
0.263519
0.255863
0.248655
0.241876
0.235512
0.229545
0.22396
0.218735
0.213847
0.209267
0.20496
0.200894
0.197038
0.193367
0.189864
0.186516
0.183317
0.18026
0.177341
0.174549
0.171874
0.169302
0.166816
0.164403
0.162048
0.159738
0.157462
0.155209
0.152969
0.150734
0.148497
0.146253
0.143998
0.141733
0.139459
0.13718
0.134901
0.132629
0.13037
0.128131
0.125921
0.123744
0.121609
0.11952
0.117482
0.115502
0.113576
0.111708
0.109904
0.108163
0.106477
0.104839
0.103244
0.101687
0.100165
0.0986744
0.0972148
0.0957844
0.0943825
0.0930078
0.0916589
0.0903336
0.0890293
0.0877426
0.0864699
0.0852081
0.083954
0.0827051
0.0814592
0.0802141
0.0789683
0.0777203
0.0764691
0.0752136
0.0739527
0.0726864
0.0714083
0.0701156
0.0688054
0.0674738
0.0661161
0.0647262
0.0632962
0.0618162
0.0602726
0.0586462
0.0569086
0.0550172
0.0529077
0.0504821
0.0475943
0.0440407
0.0395742
0.0339799
0.0272464
0.0197992
0.0125897
0.00676344
0.00298416
0.00105252
0.000268082
2.17112e-05
4.37273e-07
1.40979e-09
2.17741e-12
1.40274e-09
7.04867e-08
6.09673e-08
3.07031e-08
3.55834e-08
1.06386e-09
8.87118e-12
5.25172e-14
9.52549e-18
0
6.00106e-16
2.28612e-15
1.87874e-14
2.25437e-14
1.69554e-14
4.39522e-13
6.25437e-13
8.15068e-06
0.00195333
0.00376567
0.00490536
0.00598251
0.0060123
0.00412022
0.00147684
0.000269679
2.37013e-05
0.423421
0.418428
0.411768
0.403731
0.394608
0.384671
0.374165
0.363306
0.352281
0.341247
0.330332
0.319641
0.309252
0.299221
0.28959
0.280383
0.271614
0.263287
0.255399
0.247944
0.240911
0.234292
0.228081
0.222271
0.216853
0.211815
0.207133
0.202778
0.198708
0.19488
0.191255
0.187803
0.184504
0.181349
0.178336
0.175465
0.172735
0.170139
0.167667
0.165302
0.163026
0.160822
0.158672
0.156561
0.154475
0.152404
0.150335
0.148258
0.146164
0.144045
0.141898
0.139723
0.137522
0.135299
0.133062
0.130819
0.128578
0.126349
0.124141
0.121961
0.119819
0.117721
0.115676
0.113673
0.111727
0.10985
0.108046
0.106317
0.104657
0.103048
0.101484
0.0999575
0.0984636
0.0970002
0.095566
0.094161
0.0927849
0.0914376
0.0901175
0.0888225
0.0875496
0.086295
0.0850543
0.0838231
0.0825977
0.0813747
0.0801512
0.0789251
0.0776948
0.0764591
0.0752167
0.0739663
0.0727062
0.0714399
0.0701568
0.0688536
0.0675268
0.0661719
0.0647832
0.0633535
0.061873
0.0603292
0.0587043
0.0569722
0.0550947
0.0530138
0.0506418
0.0478476
0.0444438
0.04019
0.0348428
0.0283001
0.0208488
0.0133691
0.00714054
0.00307942
0.00106902
0.000302021
7.30233e-05
2.17637e-06
3.01091e-09
3.83076e-12
5.8423e-15
5.30675e-13
8.9438e-11
1.29384e-10
9.09647e-11
1.56974e-10
7.50658e-12
6.203e-14
2.0321e-16
0
0
0
0
3.17516e-18
0
0
5.62004e-16
8.06629e-09
2.58781e-05
0.00131446
0.00277736
0.00356564
0.00403846
0.0035109
0.0019358
0.000585785
0.000100334
8.56838e-06
0.407254
0.402627
0.39644
0.388944
0.380397
0.371043
0.361109
0.3508
0.340296
0.32975
0.319292
0.309023
0.299021
0.289344
0.28003
0.271105
0.262581
0.254464
0.24675
0.239437
0.232522
0.226008
0.219899
0.214201
0.208917
0.204043
0.199566
0.195453
0.191653
0.188103
0.184747
0.181544
0.17847
0.175521
0.172704
0.170028
0.167501
0.165122
0.16288
0.160756
0.158728
0.156771
0.154864
0.152989
0.151132
0.149279
0.147417
0.145531
0.143611
0.141645
0.139628
0.13756
0.135444
0.133285
0.131094
0.12888
0.126655
0.124431
0.122219
0.120028
0.117869
0.115752
0.113665
0.111622
0.109645
0.107746
0.105936
0.104217
0.102588
0.101016
0.0994891
0.0979976
0.0965354
0.0951002
0.0936923
0.0923131
0.0909639
0.0896456
0.0883574
0.0870972
0.0858617
0.084646
0.0834447
0.0822519
0.0810623
0.0798715
0.0786761
0.0774737
0.0762628
0.0750424
0.0738114
0.0725685
0.0713119
0.0700416
0.0687549
0.0674428
0.0661008
0.0647232
0.0633029
0.0618308
0.0602947
0.0586784
0.0569583
0.0550998
0.0530513
0.0507348
0.0480338
0.0447796
0.0407471
0.0356832
0.0294153
0.0220834
0.0144253
0.0077721
0.00331754
0.00111984
0.000303858
6.71593e-05
2.38355e-05
2.61949e-07
7.17291e-10
1.71884e-12
3.18151e-15
1.07956e-16
1.18389e-13
2.55985e-13
2.35635e-13
5.38635e-13
3.14659e-14
7.62039e-17
0
0
0
0
0
0
0
1.03288e-14
1.62103e-11
3.35235e-08
2.26449e-05
0.000827916
0.00184501
0.00227339
0.00232491
0.00172711
0.000801576
0.0002186
3.59695e-05
2.98969e-06
0.392547
0.388198
0.382355
0.375243
0.367098
0.358147
0.34861
0.338685
0.328551
0.318362
0.308245
0.298299
0.288599
0.279198
0.270134
0.261425
0.25308
0.245103
0.237489
0.230243
0.223369
0.21688
0.210793
0.205127
0.199745
0.194816
0.190526
0.186679
0.183205
0.180011
0.177
0.174109
0.171306
0.168591
0.165988
0.163527
0.161231
0.15911
0.157153
0.155336
0.153628
0.151993
0.150402
0.148832
0.147268
0.145696
0.144101
0.142464
0.140768
0.138999
0.137148
0.135213
0.1332
0.131118
0.128978
0.126796
0.124586
0.122362
0.120137
0.117924
0.115735
0.113572
0.111418
0.109308
0.107261
0.105302
0.103456
0.10174
0.100149
0.0986245
0.0971457
0.0956976
0.0942717
0.0928661
0.0914838
0.0901293
0.088807
0.0875194
0.0862669
0.0850479
0.0838588
0.0826938
0.081545
0.0804041
0.0792633
0.0781161
0.0769583
0.0757875
0.0746024
0.0734028
0.0721878
0.0709566
0.0697073
0.0684369
0.0671522
0.0658337
0.0644762
0.0630733
0.0616167
0.0600952
0.0584936
0.0567902
0.0549538
0.0529381
0.0506736
0.0480571
0.0449383
0.0411121
0.0363311
0.0303806
0.0232726
0.015567
0.00855282
0.00367225
0.00123084
0.000329153
6.89809e-05
9.95956e-06
4.53618e-07
5.18783e-09
1.42871e-11
3.54952e-14
0
0
3.17516e-18
2.22261e-16
3.07991e-16
1.28594e-15
3.17516e-18
0
0
0
0
0
0
0
0
1.70316e-14
2.00779e-11
2.51595e-08
2.28671e-05
0.000505695
0.00111373
0.00127862
0.00116315
0.00074971
0.000307984
7.89267e-05
1.26367e-05
1.02747e-06
0.379205
0.375054
0.369436
0.36256
0.354649
0.345927
0.336612
0.326906
0.316992
0.307027
0.297135
0.287413
0.277929
0.268728
0.259838
0.251269
0.243024
0.235099
0.227495
0.220217
0.213276
0.206689
0.200244
0.193711
0.187435
0.181632
0.176677
0.173254
0.170395
0.167919
0.165615
0.163353
0.16107
0.158771
0.156514
0.154382
0.152446
0.150737
0.149247
0.147944
0.146775
0.145675
0.144596
0.14351
0.142401
0.14126
0.140069
0.138805
0.137442
0.135959
0.134345
0.132598
0.130726
0.128745
0.126672
0.124529
0.122334
0.120106
0.11786
0.115612
0.113374
0.111109
0.108851
0.106613
0.104418
0.102308
0.100347
0.098602
0.0970638
0.0956117
0.0942078
0.0928249
0.0914491
0.090079
0.0887227
0.0873919
0.0860961
0.0848411
0.0836298
0.0824621
0.0813346
0.0802402
0.0791675
0.0781028
0.0770336
0.0759504
0.0748472
0.0737217
0.0725736
0.0714038
0.0702127
0.069
0.067764
0.0665014
0.065211
0.0638914
0.0625228
0.0610968
0.0596024
0.0580251
0.0563452
0.0545344
0.0525512
0.0503334
0.0477885
0.0447825
0.041131
0.0366032
0.0309687
0.0241487
0.0165288
0.009286
0.00403881
0.00136137
0.000368999
8.08805e-05
1.35117e-05
1.40854e-06
3.5088e-08
4.78644e-10
1.46432e-12
3.82925e-15
0
0
0
0
0
0
0
0
0
0
0
0
0
0
3.17516e-18
4.61129e-14
4.32956e-11
4.2649e-08
9.34783e-05
0.000311376
0.000613981
0.000644999
0.000523482
0.000300398
0.000113219
2.78263e-05
4.36003e-06
3.48543e-07
0.367135
0.363107
0.357601
0.350817
0.342975
0.334303
0.325029
0.315371
0.305523
0.295648
0.285868
0.276272
0.266917
0.257835
0.249037
0.240521
0.23228
0.224308
0.216599
0.209153
0.201979
0.194687
0.186891
0.178865
0.170585
0.162622
0.15554
0.15198
0.15009
0.148935
0.147958
0.146859
0.14548
0.14382
0.142009
0.14027
0.138812
0.137716
0.136988
0.13658
0.136388
0.136265
0.136108
0.135873
0.135555
0.135153
0.134653
0.134024
0.133224
0.132218
0.130989
0.12954
0.127889
0.126061
0.124089
0.122003
0.119831
0.117598
0.115324
0.113024
0.110714
0.10832
0.10588
0.103397
0.100882
0.0983909
0.0960901
0.0942333
0.0927715
0.0914459
0.0901747
0.0889044
0.0876069
0.0862806
0.0849458
0.0836311
0.0823564
0.0811338
0.0799703
0.0788698
0.0778317
0.076848
0.0759008
0.0749645
0.0740165
0.0730402
0.0720269
0.0709746
0.0698857
0.0687638
0.0676121
0.0664319
0.065222
0.063979
0.0626974
0.0613885
0.0600163
0.0585697
0.0570357
0.055396
0.0536245
0.0516828
0.0495137
0.0470324
0.0441166
0.0405994
0.0362717
0.0309106
0.0243901
0.0169622
0.00967262
0.00423877
0.00143582
0.000395532
9.07257e-05
1.69177e-05
2.36096e-06
1.95798e-07
2.67677e-09
1.85904e-11
6.61736e-14
3.17516e-18
0
0
0
0
0
0
0
0
0
0
0
0
0
0
3.17516e-18
4.79735e-14
4.70251e-11
5.21984e-08
4.3306e-05
0.000154937
0.000301274
0.000295769
0.000218082
0.000114213
4.03994e-05
9.62444e-06
1.48219e-06
1.17247e-07
0.356213
0.352216
0.346702
0.339872
0.331961
0.323216
0.313887
0.303996
0.293994
0.284071
0.274293
0.264729
0.255418
0.246369
0.237573
0.229013
0.220671
0.212526
0.204558
0.196746
0.188817
0.179599
0.169344
0.158182
0.146027
0.134954
0.123949
0.120207
0.119683
0.120884
0.122217
0.123085
0.12311
0.122215
0.120551
0.117906
0.11688
0.116565
0.116979
0.118071
0.119656
0.121329
0.12283
0.124085
0.125127
0.126
0.126711
0.12721
0.127415
0.127253
0.126697
0.125758
0.124475
0.122902
0.121094
0.119103
0.116973
0.114741
0.112432
0.110064
0.107595
0.105012
0.102293
0.0993988
0.0962804
0.0929677
0.0898255
0.0877626
0.0864336
0.0853718
0.0843704
0.0833207
0.0821593
0.0808802
0.0795349
0.0782007
0.0769194
0.075711
0.0745894
0.0735681
0.0726565
0.0718513
0.0711238
0.0704168
0.0696847
0.0688953
0.0680343
0.0671021
0.0661074
0.0650613
0.0639731
0.0628482
0.0616873
0.0604863
0.0592377
0.0579318
0.0565908
0.0551483
0.0535883
0.0518884
0.050014
0.0479112
0.0454986
0.0426587
0.0392333
0.0350323
0.0298593
0.0235877
0.0164094
0.00929363
0.00401669
0.00135139
0.000376759
8.98711e-05
1.81946e-05
3.00344e-06
3.71319e-07
2.75193e-08
2.10416e-10
4.13851e-13
8.63644e-16
0
0
0
0
0
0
0
0
0
0
0
0
0
0
0
0
3.12246e-14
5.96837e-11
1.26501e-07
1.90328e-05
7.01577e-05
0.000136355
0.000126268
8.59219e-05
4.18434e-05
1.40992e-05
3.27959e-06
4.99022e-07
3.93931e-08
0.346337
0.342262
0.33659
0.329533
0.321349
0.312323
0.302735
0.292703
0.282591
0.272586
0.262189
0.252566
0.243214
0.234111
0.225225
0.21652
0.207952
0.199472
0.191021
0.18253
0.172084
0.15951
0.144703
0.130015
0.114291
0.103634
0.0916827
0.0893417
0.0895293
0.0930896
0.0964676
0.0990289
0.100114
0.0993544
0.095356
0.0897327
0.0874848
0.087453
0.0887386
0.0914553
0.0955133
0.0998053
0.103638
0.106905
0.109781
0.11245
0.114982
0.117294
0.119179
0.120451
0.121032
0.120941
0.12026
0.119093
0.117543
0.115703
0.113643
0.111421
0.109072
0.106615
0.103982
0.101146
0.09804
0.0945497
0.0904649
0.0857432
0.0810491
0.0789555
0.0778682
0.0773422
0.0768252
0.0761542
0.0751906
0.0739079
0.0721764
0.0705571
0.0692125
0.0679783
0.0668708
0.0659205
0.0651654
0.064631
0.0642827
0.0639706
0.0636051
0.0631209
0.0624938
0.0617336
0.0608658
0.0599185
0.0589145
0.0578679
0.056783
0.0556539
0.0544676
0.0532087
0.0518707
0.0504556
0.0488875
0.0471301
0.0451302
0.0428069
0.0400394
0.036664
0.0324923
0.0273593
0.0212132
0.014282
0.00766185
0.00314037
0.00103302
0.000291463
7.25523e-05
1.58493e-05
2.95888e-06
4.51484e-07
5.27543e-08
4.22745e-09
2.71867e-11
7.16666e-14
3.17516e-18
0
0
0
0
0
0
0
0
0
0
0
0
0
0
0
2.00035e-16
4.07218e-13
3.48518e-10
1.33211e-07
8.31357e-06
3.03814e-05
5.84285e-05
5.11338e-05
3.24731e-05
1.49124e-05
4.8412e-06
1.10716e-06
1.67643e-07
1.33452e-08
0.337424
0.333156
0.327162
0.319668
0.310971
0.301419
0.291349
0.28098
0.270631
0.260466
0.250076
0.240037
0.230032
0.220776
0.21171
0.202742
0.193785
0.184736
0.175458
0.164661
0.150502
0.132052
0.112365
0.0984578
0.0838608
0.0796534
0.0763677
0.057587
0.0517396
0.0819299
0.084032
0.0858227
0.0863853
0.0846968
0.0783825
0.0704127
0.0677381
0.0665691
0.0668977
0.0689797
0.0738633
0.0795162
0.0844061
0.0884757
0.0922019
0.0960222
0.100149
0.104479
0.108531
0.111782
0.113965
0.115068
0.115221
0.114607
0.1134
0.111752
0.109779
0.107568
0.105168
0.102601
0.0997875
0.0966776
0.0931526
0.0889955
0.0836972
0.077395
0.0712874
0.0695813
0.0687902
0.069093
0.0691342
0.0688967
0.0680936
0.0666052
0.0629951
0.0607481
0.0591253
0.0578218
0.0566773
0.0557473
0.055128
0.0549474
0.0552412
0.0555607
0.0557666
0.0557251
0.0553985
0.0548258
0.0540727
0.0532016
0.0522606
0.05128
0.050271
0.0492235
0.0481103
0.0469033
0.0455767
0.0441383
0.0425356
0.040676
0.0384698
0.0357804
0.0324158
0.0281629
0.022883
0.0166173
0.0100136
0.00471715
0.00178054
0.000578605
0.000169295
4.50753e-05
1.08195e-05
2.28835e-06
4.11041e-07
5.95374e-08
6.6312e-09
7.94156e-10
5.53159e-12
1.70729e-14
0
0
0
0
0
0
0
0
0
0
0
0
0
0
0
6.35033e-17
3.50856e-14
6.4887e-12
8.70502e-10
1.24237e-07
3.72086e-06
1.27774e-05
2.39488e-05
1.98451e-05
1.18794e-05
5.20772e-06
1.64615e-06
3.73157e-07
5.67485e-08
4.60809e-09
0.329393
0.324806
0.318297
0.310101
0.300581
0.290191
0.27938
0.268471
0.25774
0.247276
0.236825
0.226757
0.216552
0.206006
0.196644
0.18726
0.177677
0.167689
0.157003
0.141273
0.121888
0.0979098
0.0789341
0.0722893
0.0676983
0.0135161
0.00050995
0.000319132
0.000957642
0.00278369
0.0476457
0.0766586
0.077292
0.074539
0.0648831
0.0606748
0.0315056
0.00416934
0.00653681
0.039962
0.0672823
0.0708224
0.0736498
0.0759187
0.0782683
0.081301
0.0854871
0.0909635
0.0969941
0.102321
0.106254
0.108666
0.109723
0.109689
0.108823
0.107346
0.105429
0.103197
0.100723
0.0980283
0.0950579
0.0917382
0.0879067
0.0832208
0.076716
0.0697613
0.0648631
0.0508535
0.0385007
0.0603381
0.0611079
0.0615419
0.0609509
0.0583599
0.0506294
0.0474311
0.0459598
0.0445877
0.0431718
0.0421696
0.0415669
0.0417809
0.0433869
0.044856
0.046062
0.0467342
0.0468125
0.0464314
0.0457512
0.044899
0.0439652
0.0430088
0.042056
0.0410896
0.0400452
0.0388699
0.0375248
0.0359671
0.0341938
0.0320821
0.029424
0.0259859
0.0214844
0.0158076
0.00967047
0.00473983
0.00193565
0.000704487
0.000238563
7.58479e-05
2.23335e-05
6.00776e-06
1.45314e-06
3.07912e-07
5.45935e-08
7.46882e-09
6.51808e-10
8.97053e-12
5.03803e-14
3.17516e-18
0
0
0
0
0
0
0
0
0
0
0
0
0
0
0
3.30217e-16
1.26197e-13
1.95801e-11
2.61971e-09
3.81798e-07
1.76931e-06
5.19096e-06
9.38045e-06
7.4142e-06
4.23442e-06
1.79519e-06
5.58872e-07
1.26786e-07
1.96107e-08
1.64633e-09
0.322157
0.317115
0.309849
0.300593
0.289808
0.27815
0.266279
0.254613
0.243361
0.232521
0.221937
0.211728
0.201494
0.190841
0.179517
0.169458
0.15885
0.147246
0.132415
0.107823
0.0871963
0.0654458
0.0596444
0.0165058
0.000590551
7.98624e-05
4.09939e-06
1.94215e-06
5.29938e-06
1.79103e-05
0.000389657
0.0322928
0.0653841
0.0623067
0.0518424
0.0045436
4.40077e-05
1.07265e-05
3.6162e-05
0.00047715
0.0400894
0.065122
0.0663147
0.0667471
0.0673749
0.068865
0.0720411
0.0779289
0.0861121
0.0935329
0.0990526
0.102577
0.104365
0.104762
0.104103
0.102675
0.100707
0.0983739
0.0957851
0.0929627
0.0899111
0.0865461
0.0826773
0.0777739
0.0701764
0.0638433
0.0170266
0.000192394
0.000165303
0.0010125
0.0221858
0.054281
0.0543173
0.0506192
0.0415703
0.00910045
0.000162065
0.00128989
4.31605e-05
4.96923e-05
0.000479973
0.0114151
0.0379656
0.0386942
0.0396336
0.040105
0.0398769
0.0391678
0.0381823
0.0370609
0.0359013
0.0347767
0.0337322