/*--------------------------------*- C++ -*----------------------------------*\
| =========                 |                                                 |
| \\      /  F ield         | OpenFOAM: The Open Source CFD Toolbox           |
|  \\    /   O peration     | Version:  2.1.0                                 |
|   \\  /    A nd           | Web:      www.OpenFOAM.org                      |
|    \\/     M anipulation  |                                                 |
\*---------------------------------------------------------------------------*/
FoamFile
{
    version     2.0;
    format      ascii;
    class       surfaceScalarField;
    location    "32120";
    object      phi_o;
}
// * * * * * * * * * * * * * * * * * * * * * * * * * * * * * * * * * * * * * //

dimensions      [1 -2 -2 0 0 0 0];

internalField   nonuniform List<scalar> 
29750
(
18.5897
18.6206
11.2212
7.36849
7.75272
3.46946
5.86603
1.90098
4.74816
1.1777
4.0588
0.807411
3.61356
0.598944
3.30739
0.469063
3.08472
0.380431
2.91659
0.315658
2.78712
0.265944
2.68683
0.226418
2.6096
0.19415
2.55119
0.167274
2.5085
0.14455
2.47912
0.125121
2.46115
0.108382
2.45296
0.0939014
2.45318
0.0813589
2.46057
0.0705162
2.47402
0.0611918
2.4925
0.0532408
2.51507
0.0465415
2.54085
0.0409867
2.56903
0.0364768
2.59886
0.0329163
2.62969
0.0302114
2.66095
0.0282695
2.69212
0.0270022
2.72275
0.0263237
2.75246
0.026154
2.78089
0.0264233
2.80774
0.0270725
2.83274
0.0280503
2.85568
0.0293117
2.87635
0.0308152
2.8946
0.0325165
2.91032
0.0343694
2.92345
0.036323
2.93397
0.0383191
2.94195
0.0402937
2.9475
0.0421779
2.95081
0.043901
2.95212
0.0453948
2.95175
0.0465951
2.95008
0.0474457
2.9475
0.047898
2.94448
0.0479162
2.9415
0.0474781
2.93903
0.0465773
2.93755
0.0452213
2.9375
0.0434315
2.93928
0.0412442
2.94325
0.0387109
2.94971
0.0358964
2.95888
0.0328755
2.9709
0.0297305
2.98582
0.0265468
3.00361
0.0234072
3.02415
0.0203918
3.04727
0.0175733
3.0727
0.0150149
3.10015
0.0127681
3.12928
0.0108705
3.15973
0.00934351
3.19115
0.00819072
3.22318
0.00739608
3.25551
0.00692841
3.28786
0.00674692
3.32
0.00680575
3.35176
0.00705842
3.38298
0.00745917
3.4136
0.0079657
3.44353
0.00854161
3.47276
0.00915468
3.5013
0.0097769
3.52916
0.0103811
3.55642
0.0109362
3.58316
0.0114105
3.6095
0.0117725
3.63561
0.0119884
3.66169
0.0120201
3.68797
0.0118261
3.71474
0.0113675
3.74231
0.0106094
3.77102
0.00951817
3.80126
0.00806956
3.83342
0.00624034
3.86793
0.00400466
3.90523
0.00133972
3.9458
-0.00178015
3.99014
-0.00538371
4.0388
-0.0095046
4.09235
-0.0141845
4.15144
-0.0194827
4.21676
-0.0254722
4.28913
-0.032233
4.36945
-0.0398665
4.45875
-0.0484898
4.55817
-0.0582477
4.66904
-0.0693097
4.7929
-0.0818725
4.9315
-0.0961553
5.08684
-0.1124
5.26119
-0.13088
5.45712
-0.151894
5.67749
-0.175742
5.92544
-0.202696
6.20435
-0.232966
6.51767
-0.266647
6.8687
-0.303611
7.26031
-0.343379
7.69438
-0.384979
8.17117
-0.426804
8.68864
-0.466526
9.24189
-0.501272
9.82325
-0.528269
10.4236
-0.546108
11.0356
-0.556512
11.6582
-0.565851
12.3013
-0.58493
12.9873
-0.626365
13.7501
-0.701372
14.63
-0.816505
15.6652
-0.969234
16.8751
-1.14068
18.2344
-1.28599
19.6417
-1.32986
20.9124
-1.19033
21.8563
-0.863887
22.4474
-0.512761
22.7285
-0.204941
22.7434
0.060237
22.5124
0.307189
22.0406
0.549072
21.3623
0.756657
20.5735
0.868489
19.7086
0.946004
18.7292
1.06215
17.5667
1.2469
16.1739
1.47924
14.5588
1.70389
12.767
1.88362
10.8675
1.99503
8.92951
2.03881
7.00611
2.03334
5.13776
2.00243
3.38777
1.96832
1.80713
1.95233
1.95866
7.33758
11.2831
7.32222
7.38403
6.18424
4.61178
5.14275
2.97307
4.37787
2.02828
3.85034
1.47226
3.48367
1.12745
3.21876
0.898348
3.01994
0.735866
2.86688
0.61439
2.7476
0.519828
2.65456
0.443906
2.58272
0.381481
2.52847
0.329202
2.48907
0.284803
2.46239
0.246708
2.44667
0.213798
2.44042
0.185262
2.44234
0.160505
2.45124
0.139078
2.46607
0.120637
2.4858
0.104908
2.50952
0.0916598
2.53634
0.0806862
2.56547
0.0717955
2.59615
0.0648002
2.62775
0.0595133
2.65968
0.0557495
2.69144
0.0533277
2.72259
0.0520725
2.75273
0.0518225
2.78154
0.0524361
2.80871
0.0537947
2.834
0.0558003
2.85718
0.0583666
2.87805
0.0614151
2.89646
0.0648659
2.91227
0.0686287
2.92544
0.0726018
2.93595
0.0766663
2.94383
0.0806889
2.94922
0.0845289
2.9523
0.0880431
2.95332
0.0910936
2.95261
0.0935509
2.95053
0.0953
2.94752
0.096244
2.94405
0.0963091
2.9406
0.0954482
2.93767
0.0936429
2.93576
0.0909065
2.93531
0.0872837
2.93675
0.0828516
2.94044
0.0777179
2.94669
0.0720171
2.95574
0.0659016
2.96771
0.0595345
2.98268
0.0530861
3.00059
0.0467267
3.02134
0.0406202
3.04471
0.0349169
3.07045
0.029748
3.09825
0.0252201
3.12775
0.0214103
3.15858
0.0183591
3.19035
0.0160698
3.22271
0.0145097
3.25533
0.0136149
3.28792
0.0133014
3.32026
0.0134733
3.35216
0.0140316
3.38349
0.0148822
3.41417
0.0159396
3.44414
0.0171304
3.47338
0.0183923
3.5019
0.0196676
3.52972
0.020903
3.5569
0.0220438
3.58352
0.0230307
3.60972
0.0237992
3.63564
0.0242775
3.66149
0.0243862
3.68752
0.0240421
3.71398
0.0231638
3.74122
0.0216836
3.76957
0.0195421
3.79943
0.0166819
3.83119
0.0130566
3.86526
0.00862072
3.90211
0.00332816
3.9422
-0.00286836
3.98602
-0.0100201
4.03412
-0.0181956
4.08705
-0.0274825
4.14545
-0.037987
4.21
-0.0498495
4.2815
-0.063235
4.36083
-0.0783418
4.44899
-0.0954076
4.5471
-0.114718
4.65648
-0.136606
4.77862
-0.161455
4.91525
-0.189702
5.06836
-0.221842
5.24018
-0.258434
5.43327
-0.300081
5.65053
-0.347394
5.89517
-0.400957
6.17067
-0.461263
6.4807
-0.528582
6.82893
-0.602767
7.21871
-0.683014
7.65256
-0.767514
8.13145
-0.85307
8.65389
-0.934819
9.21489
-1.00639
9.80542
-1.06096
10.4132
-1.09394
11.0263
-1.10729
11.6391
-1.11399
12.2599
-1.13828
12.9123
-1.20851
13.6349
-1.35013
14.4773
-1.58038
15.4938
-1.90082
16.7298
-2.28249
18.1905
-2.63949
19.7813
-2.79894
21.2388
-2.51944
22.2075
-1.7157
22.7552
-0.957318
22.9937
-0.351445
22.9903
0.150241
22.7542
0.633263
22.2481
1.14833
21.4741
1.62645
20.651
1.78893
19.8248
1.87072
18.9139
2.07289
17.799
2.46354
16.3985
2.98319
14.7386
3.46877
12.8784
3.85011
10.9112
4.07013
8.92404
4.13717
6.97521
4.10084
5.10364
4.01734
3.37178
3.93384
1.81346
3.88878
3.88153
3.43851
7.84546
4.54997
6.27682
4.54552
4.63786
4.19796
3.38655
3.82185
2.52479
3.50552
1.94444
3.25458
1.54526
3.05628
1.25978
2.89847
1.04709
2.77232
0.88281
2.67168
0.752026
2.59214
0.645322
2.53045
0.556529
2.48407
0.481477
2.45097
0.417273
2.42948
0.36187
2.41813
0.313789
2.41566
0.27195
2.42091
0.23555
2.4328
0.203986
2.45034
0.17679
2.47255
0.153585
2.49854
0.134052
2.52745
0.117907
2.55847
0.104873
2.59087
0.0946781
2.62399
0.087042
2.65726
0.0816828
2.69019
0.078319
2.72234
0.0766771
2.75334
0.0765087
2.78289
0.0776009
2.81072
0.079779
2.83657
0.0829038
2.86023
0.0868611
2.8815
0.0915439
2.90022
0.0968431
2.91625
0.102629
2.92951
0.108748
2.93997
0.115016
2.94767
0.121229
2.95274
0.127169
2.95535
0.132616
2.95578
0.137355
2.95435
0.141189
2.95147
0.143938
2.94758
0.145452
2.94318
0.145614
2.93879
0.144348
2.93494
0.141624
2.93213
0.137461
2.93088
0.131929
2.93161
0.12515
2.93474
0.117291
2.94058
0.108559
2.94937
0.0991863
2.96127
0.0894274
2.97632
0.0795452
2.99449
0.0698032
3.01563
0.0604561
3.03954
0.051739
3.06593
0.0438573
3.09444
0.0369766
3.1247
0.031216
3.15629
0.0266391
3.18879
0.0232483
3.22182
0.020988
3.25502
0.0197548
3.28809
0.0194108
3.32081
0.0198007
3.35301
0.0207653
3.38455
0.0221549
3.41536
0.0238395
3.4454
0.025709
3.47466
0.027674
3.50314
0.0296561
3.53086
0.0315809
3.55789
0.0333732
3.58429
0.0349477
3.61019
0.0362046
3.63575
0.0370302
3.66115
0.0372987
3.68664
0.0368837
3.7125
0.0356669
3.73907
0.0335383
3.76671
0.0304074
3.7958
0.0261936
3.82675
0.0208258
3.85997
0.0142406
3.89591
0.00637841
3.93505
-0.00282336
3.97785
-0.0134401
4.02483
-0.0255644
4.07655
-0.0393203
4.13359
-0.0548736
4.19662
-0.072421
4.26639
-0.0922056
4.34376
-0.114518
4.42968
-0.139709
4.52522
-0.168197
4.63163
-0.200473
4.75037
-0.237108
4.88311
-0.278755
5.03176
-0.326169
5.19853
-0.380199
5.38596
-0.441761
5.59697
-0.511827
5.83486
-0.591372
6.10335
-0.681274
6.40652
-0.782144
6.74869
-0.894071
7.13421
-1.01623
7.567
-1.14629
8.0497
-1.27969
8.58233
-1.40883
9.16032
-1.52269
9.77244
-1.60778
10.3999
-1.65205
11.0196
-1.65347
11.6148
-1.63163
12.1896
-1.63129
12.7707
-1.70324
13.4047
-1.89208
14.1569
-2.23239
15.1121
-2.74359
16.3728
-3.41096
18.031
-4.13512
20.0608
-4.62824
22.0426
-4.28812
22.9658
-2.48794
23.361
-1.23945
23.4954
-0.395859
23.4733
0.255174
23.2693
0.931033
22.7263
1.79628
21.6366
2.83008
20.7328
2.80868
20.027
2.69289
19.3046
2.91356
18.3187
3.57151
16.8841
4.54328
15.1199
5.35975
13.0984
5.99758
10.9783
6.3145
8.88771
6.35177
6.8917
6.22605
5.02014
6.04355
3.32673
5.87981
1.80621
5.787
5.74851
1.86987
5.98928
2.91101
5.26546
3.29421
4.31987
3.3362
3.45757
3.2415
2.76984
3.10635
2.24622
2.96909
1.84936
2.8436
1.54434
2.73418
1.30502
2.64153
1.11317
2.56497
0.956237
2.50335
0.825572
2.45539
0.71514
2.41986
0.620663
2.39557
0.539071
2.3814
0.468128
2.37629
0.406192
2.37926
0.35204
2.38934
0.304759
2.40561
0.263654
2.42713
0.228183
2.45302
0.197909
2.4824
0.172458
2.51442
0.151484
2.54827
0.134647
2.58323
0.121595
2.61863
0.111954
2.65389
0.105337
2.68854
0.101347
2.72217
0.0995991
2.75443
0.0997495
2.78507
0.101512
2.81384
0.104662
2.84053
0.109035
2.86491
0.1145
2.8868
0.120941
2.906
0.12823
2.92237
0.136204
2.93577
0.144657
2.94618
0.153337
2.95361
0.161962
2.95819
0.170227
2.96009
0.177825
2.95961
0.18446
2.9571
0.189855
2.95299
0.19376
2.94775
0.195964
2.94192
0.196301
2.93607
0.194663
2.93077
0.191003
2.9266
0.185345
2.9241
0.177788
2.92375
0.168501
2.92601
0.157717
2.93121
0.145723
2.93961
0.132843
2.95138
0.11943
2.96658
0.105851
2.98514
0.0924746
3.00692
0.0796552
3.03166
0.0677213
3.05905
0.0569619
3.08868
0.0476136
3.12012
0.0398446
3.1529
0.0337417
3.18653
0.0293048
3.22059
0.026449
3.25467
0.0250185
3.28848
0.0248066
3.32178
0.0255805
3.3544
0.0271066
3.38623
0.0291703
3.41723
0.0315913
3.44737
0.0342284
3.47664
0.0369732
3.50506
0.0397369
3.53265
0.0424345
3.55946
0.0449734
3.58555
0.0472425
3.61102
0.0491052
3.63602
0.0504016
3.66073
0.0509575
3.68542
0.0505971
3.71037
0.0491554
3.73594
0.0464832
3.7625
0.0424537
3.79044
0.0369608
3.82016
0.0299176
3.85211
0.0212524
3.88671
0.0108968
3.92443
-0.00121857
3.96572
-0.0151793
4.01107
-0.0311069
4.06099
-0.0491601
4.11604
-0.0695437
4.17683
-0.0925144
4.24408
-0.118379
4.31857
-0.147512
4.40119
-0.18037
4.49294
-0.217499
4.595
-0.259543
4.70872
-0.307245
4.8357
-0.361478
4.97773
-0.423248
5.13697
-0.493693
5.31589
-0.57408
5.51742
-0.66579
5.74496
-0.770266
6.00248
-0.888917
6.29459
-1.02294
6.62653
-1.173
7.00415
-1.33877
7.4336
-1.51804
7.92056
-1.70554
8.46846
-1.89122
9.07523
-2.05843
9.72816
-2.18307
10.3984
-2.23741
11.0414
-2.20467
11.6152
-2.10827
12.1177
-2.03226
12.5819
-2.06119
13.0644
-2.26178
13.6457
-2.69023
14.4448
-3.40129
15.6487
-4.44246
17.5379
-5.80044
20.4009
-7.19691
23.8428
-7.43086
24.2143
-2.74569
24.2046
-1.15949
24.1464
-0.288639
24.1492
0.301706
24.1346
1.01624
23.7601
2.26947
21.6152
5.10361
20.617
3.93209
20.2476
3.18321
19.9625
3.32402
19.2904
4.381
17.7006
6.28359
15.7577
7.4573
13.4153
8.49209
11.0155
8.85954
8.76199
8.74487
6.70921
8.42014
4.85639
8.06467
3.23393
7.77799
1.76771
7.61503
7.52476
1.14605
4.90079
1.96543
4.52962
2.4319
3.97235
2.64847
3.39084
2.71789
2.86645
2.70948
2.42295
2.66407
2.05717
2.60428
1.75701
2.54233
1.50945
2.4846
1.30331
2.43431
1.12971
2.39291
0.98187
2.36092
0.854698
2.33827
0.744374
2.32463
0.648033
2.31946
0.563521
2.32214
0.489212
2.33198
0.423878
2.34824
0.366588
2.37014
0.316629
2.39686
0.273443
2.42757
0.236581
2.46143
0.205648
2.49758
0.180272
2.53522
0.160066
2.57359
0.144606
2.61201
0.133424
2.6499
0.126007
2.6868
0.121821
2.72232
0.120347
2.7562
0.121131
2.78822
0.123807
2.81822
0.128114
2.84599
0.133879
2.87136
0.140984
2.89409
0.149328
2.91398
0.158784
2.93082
0.169163
2.94446
0.180207
2.95481
0.191591
2.96188
0.202934
2.96578
0.213838
2.96673
0.223893
2.96501
0.23271
2.96101
0.239922
2.95519
0.245201
2.94808
0.248265
2.94028
0.248891
2.93241
0.246928
2.92512
0.24231
2.91905
0.235064
2.91481
0.22532
2.91297
0.213299
2.91401
0.199311
2.91833
0.183733
2.9262
0.166996
2.9378
0.149565
2.9532
0.131924
2.97232
0.11456
2.99498
0.0979401
3.0209
0.0825029
3.0497
0.0686356
3.08091
0.0566572
3.11402
0.0467958
3.14846
0.0391689
3.18368
0.0337715
3.21916
0.0304793
3.25446
0.0290645
3.28926
0.0292255
3.32331
0.0306245
3.35646
0.0329277
3.38865
0.0358432
3.41987
0.0391404
3.45011
0.0426541
3.47941
0.0462704
3.50776
0.0499044
3.53519
0.0534738
3.56173
0.0568773
3.58741
0.0599797
3.61232
0.0626051
3.63657
0.0645455
3.66037
0.0655678
3.68398
0.0654366
3.7077
0.0639298
3.73191
0.0608505
3.75701
0.0560322
3.78339
0.04935
3.8115
0.0407102
3.84175
0.03004
3.8746
0.0172805
3.91047
0.00236322
3.94979
-0.0148104
3.99302
-0.0343708
4.04061
-0.0565045
4.09307
-0.08145
4.15097
-0.109506
4.21495
-0.141037
4.28572
-0.176497
4.36406
-0.21644
4.4509
-0.261525
4.54729
-0.312529
4.65449
-0.370365
4.77393
-0.436107
4.90729
-0.511001
5.05658
-0.59648
5.22418
-0.694174
5.41295
-0.805906
5.62631
-0.933669
5.86846
-1.07955
6.14452
-1.24558
6.46076
-1.43345
6.82488
-1.644
7.24611
-1.87622
7.73488
-2.12564
8.30126
-2.38141
8.95058
-2.62183
9.67382
-2.80859
10.4312
-2.8846
11.1378
-2.79158
11.6912
-2.53911
12.0888
-2.30757
12.3813
-2.23088
12.6359
-2.38977
12.9346
-2.85282
13.4036
-3.71629
14.2907
-5.14446
16.1414
-7.41803
20.1669
-10.9336
28.5279
-15.6099
25.8005
-26.8651
25.0755
-8.07608
24.7367
0.38925
24.8637
1.83885
25.3878
5.38006
26.5942
11.7993
20.4437
11.3753
19.8682
4.59632
20.3884
2.73708
21.0195
2.77632
21.193
4.32154
18.8743
8.76018
16.7925
9.71307
13.7828
11.6787
10.9009
11.9069
8.43726
11.3621
6.35374
10.6559
4.56972
10.0322
3.07097
9.57942
1.67744
9.32475
9.16284
0.774879
4.24076
1.40817
4.03126
1.85039
3.68473
2.12408
3.28347
2.27439
2.88452
2.3437
2.51725
2.3639
2.19219
2.35673
1.90974
2.33619
1.66587
2.311
1.45525
2.28647
1.27265
2.26574
1.1135
2.25059
0.97405
2.24193
0.851263
2.24011
0.742749
2.24515
0.646633
2.25681
0.561459
2.27469
0.486105
2.29828
0.41971
2.32695
0.361613
2.35999
0.311302
2.39664
0.268362
2.43605
0.232429
2.47737
0.203137
2.51976
0.180079
2.56241
0.162772
2.60459
0.150643
2.64572
0.143024
2.68532
0.139206
2.7231
0.138499
2.75887
0.14031
2.79253
0.144188
2.82398
0.149847
2.8531
0.157141
2.8797
0.166007
2.90355
0.176401
2.92436
0.188223
2.94186
0.201276
2.95584
0.215246
2.96615
0.229715
2.97278
0.244191
2.97584
0.25815
2.97554
0.271067
2.97222
0.28244
2.96629
0.291805
2.95825
0.298746
2.94871
0.302898
2.93832
0.303969
2.92779
0.301753
2.91787
0.296154
2.9093
0.287199
2.90279
0.275051
2.89898
0.259995
2.89843
0.242429
2.90159
0.22284
2.90877
0.201782
2.92016
0.179853
2.93583
0.157671
2.9557
0.135852
2.97954
0.114999
3.00703
0.0956738
3.03772
0.0783845
3.07105
0.0635542
3.10639
0.0514873
3.14306
0.0423421
3.18038
0.0361105
3.21774
0.032614
3.25462
0.0315236
3.29066
0.0324011
3.32561
0.0347603
3.35938
0.0381335
3.39195
0.042131
3.42338
0.0464712
3.45373
0.0509788
3.48304
0.0555561
3.51133
0.060146
3.5386
0.0646895
3.56483
0.0690914
3.59004
0.0732007
3.61426
0.0768
3.6376
0.0796189
3.66024
0.0813516
3.68247
0.0816838
3.70462
0.0803159
3.7271
0.0769949
3.75032
0.0715192
3.77475
0.063745
3.80083
0.0535864
3.82899
0.0409882
3.85968
0.0259078
3.89329
0.00829154
3.93023
-0.0119457
3.97089
-0.0349464
4.01567
-0.0609049
4.06501
-0.0900854
4.11944
-0.12282
4.17949
-0.159527
4.24577
-0.200729
4.31897
-0.247058
4.39989
-0.29927
4.48946
-0.358259
4.58875
-0.425087
4.69903
-0.501007
4.82181
-0.587484
4.95889
-0.686229
5.11245
-0.799228
5.28518
-0.92876
5.48043
-1.07741
5.70243
-1.24802
5.95665
-1.44367
6.25022
-1.66746
6.59266
-1.92216
6.99669
-2.20943
7.47911
-2.52816
8.06084
-2.87091
8.76382
-3.21632
9.59781
-3.51416
10.5242
-3.66219
11.3903
-3.49806
11.9227
-2.92506
12.1655
-2.4189
12.2224
-2.16615
12.1729
-2.22229
12.0711
-2.63125
11.9754
-3.49464
12.0171
-5.0536
12.6259
-7.89709
15.4906
-13.6905
17.2727
-18.2147
44.5896
-36.9698
33.5408
-28.9915
26.1863
-4.86045
28.4049
13.7267
31.8071
16.4221
26.1702
8.03063
13.6647
2.1804
18.0089
2.95914
20.4277
3.68367
22.5648
7.06789
25.6317
14.0703
19.8272
14.671
18.7582
10.9245
14.011
16.6043
10.356
15.7351
7.73106
14.1455
5.73004
12.815
4.11696
11.8454
2.81629
11.2093
1.51553
10.8477
10.6082
0.565378
3.82684
1.06164
3.69555
1.44914
3.46377
1.72512
3.17459
1.90712
2.86536
2.01864
2.56127
2.08145
2.27622
2.11287
2.01615
2.12557
1.78229
2.12839
1.5734
2.12732
1.38724
2.12629
1.22131
2.12781
1.07323
2.13342
0.940883
2.144
0.822486
2.15998
0.716565
2.18145
0.621934
2.2083
0.537659
2.24018
0.463017
2.27664
0.397463
2.31706
0.340586
2.3607
0.292066
2.40676
0.251616
2.45432
0.218927
2.50246
0.193608
2.55028
0.175133
2.59698
0.162802
2.6419
0.155755
2.68462
0.153043
2.72491
0.153738
2.76275
0.157058
2.79819
0.162452
2.83127
0.169635
2.86197
0.178543
2.89009
0.189238
2.91537
0.201797
2.93741
0.216197
2.95583
0.232246
2.97031
0.24957
2.98063
0.267627
2.98674
0.285774
2.98876
0.303328
2.98692
0.319619
2.98159
0.334022
2.97323
0.345968
2.96241
0.354941
2.94978
0.360482
2.9361
0.36221
2.92219
0.359844
2.90892
0.353243
2.89715
0.342427
2.88773
0.327594
2.88142
0.30911
2.87885
0.287484
2.88053
0.263335
2.88684
0.237365
2.89798
0.210325
2.91402
0.182985
2.93485
0.156114
2.96022
0.130464
2.98975
0.106751
3.02289
0.0856262
3.05898
0.0676434
3.09725
0.0532144
3.13683
0.042561
3.17689
0.0356775
3.21665
0.0323138
3.2555
0.0319934
3.29302
0.0340769
3.32898
0.037862
3.36337
0.0426953
3.39629
0.0480615
3.42789
0.0536263
3.45831
0.0592271
3.48763
0.0648228
3.51587
0.0704258
3.543
0.0760367
3.56894
0.08159
3.59364
0.0869236
3.61708
0.0917733
3.63933
0.0957847
3.66057
0.0985499
3.6811
0.0996463
3.7013
0.0986784
3.72162
0.0953166
3.74255
0.0893241
3.76459
0.0805547
3.78823
0.0689422
3.81391
0.0544683
3.84206
0.0371356
3.87306
0.0169206
3.90723
-0.00624013
3.94493
-0.032469
3.98648
-0.061968
4.03228
-0.0950135
4.08273
-0.131967
4.13829
-0.173294
4.19944
-0.219568
4.26676
-0.271484
4.3409
-0.329871
4.42263
-0.395718
4.51283
-0.470204
4.61256
-0.554727
4.72306
-0.650943
4.84589
-0.760801
4.98292
-0.886603
5.13654
-1.03105
5.30982
-1.19726
5.50679
-1.38886
5.73286
-1.60998
5.99552
-1.86534
6.30538
-2.16019
6.67796
-2.50018
7.13636
-2.89083
7.71543
-3.33536
8.46598
-3.82736
9.44978
-4.32786
10.6883
-4.70008
11.9633
-4.5636
12.4289
-3.24556
12.4182
-2.30286
12.1662
-1.83088
11.7639
-1.74993
11.2077
-2.01543
10.4165
-2.65654
9.17362
-3.78388
6.83255
-5.55454
10.9663
-7.90818
-1.48238
-13.128
52.5679
-5.83844
57.6719
-10.7875
44.7735
3.28422
31.1004
12.6002
23.4156
17.9937
20.32
23.142
14.4434
25.4303
18.7335
28.7646
23.8119
28.9053
29.5672
18.666
26.2324
13.4743
16.0807
12.8043
24.4379
29.7362
13.1417
28.012
8.76648
20.2518
6.40052
16.6526
4.76046
14.6096
3.48088
13.3435
2.45473
12.5736
1.27597
12.1033
11.8096
0.434092
3.55519
0.82985
3.46435
1.15995
3.29752
1.4159
3.07868
1.60303
2.83207
1.73359
2.577
1.82139
2.32664
1.879
2.08872
1.91668
1.86711
1.94224
1.66315
1.96139
1.47676
1.97821
1.30713
1.99546
1.1531
2.01502
1.01347
2.03808
0.887063
2.06535
0.77286
2.09718
0.669989
2.13365
0.577749
2.17463
0.495607
2.21976
0.42318
2.26853
0.360213
2.32025
0.306538
2.37407
0.262011
2.429
0.226443
2.48398
0.199512
2.53795
0.180669
2.58993
0.169073
2.63919
0.163608
2.68531
0.162978
2.72823
0.1659
2.76815
0.171313
2.80537
0.178542
2.84018
0.187341
2.87266
0.197823
2.90265
0.210295
2.92977
0.225059
2.95346
0.242241
2.97316
0.261679
2.98836
0.282908
2.99877
0.305213
3.0043
0.327732
3.00505
0.349565
3.00132
0.369868
2.99353
0.387881
2.9822
0.402932
2.96795
0.414404
2.95151
0.421728
2.93374
0.424402
2.91559
0.422037
2.8981
0.414417
2.88232
0.40155
2.86925
0.383676
2.85979
0.361262
2.8547
0.334958
2.85456
0.305553
2.8598
0.273927
2.87064
0.241008
2.88715
0.207742
2.9092
0.17507
2.93651
0.143916
2.96862
0.115169
3.00491
0.0896597
3.04455
0.0681179
3.08659
0.0511087
3.12995
0.0389587
3.17352
0.0316816
3.21633
0.0289339
3.25758
0.0300264
3.2968
0.0340194
3.33381
0.0398856
3.36874
0.0466979
3.40186
0.0537717
3.43349
0.0607276
3.4639
0.0674633
3.49323
0.0740625
3.52148
0.0806795
3.54855
0.0874265
3.57427
0.0942976
3.59849
0.101125
3.62109
0.107581
3.64209
0.113199
3.66167
0.117424
3.68014
0.119676
3.69794
0.119434
3.71563
0.116273
3.73378
0.109915
3.75298
0.100226
3.77376
0.0871834
3.79658
0.0708447
3.82185
0.0512792
3.8499
0.028538
3.88101
0.00259919
3.91543
-0.0266392
3.95344
-0.0593724
3.99533
-0.0958832
4.0414
-0.136559
4.09201
-0.181897
4.14753
-0.232507
4.20838
-0.289125
4.27506
-0.352632
4.34814
-0.424081
4.42831
-0.504727
4.51634
-0.596071
4.61321
-0.699905
4.72009
-0.818363
4.83847
-0.953987
4.97032
-1.10978
5.11822
-1.2893
5.28566
-1.49676
5.4775
-1.73717
5.70067
-2.01661
5.96539
-2.34267
6.2873
-2.72536
6.69183
-3.17885
7.22343
-3.72446
7.96548
-4.39446
9.07756
-5.22849
10.8248
-6.2056
13.2813
-6.78248
13.3716
-3.25887
12.8902
-1.78975
12.2472
-1.17746
11.4984
-1.00509
10.5666
-1.1
9.28912
-1.40621
7.40296
-1.93076
4.47891
-2.66004
5.74649
-3.95086
5.80719
-6.22302
47.6188
-3.46073
71.7436
10.3142
54.0894
20.9388
36.494
30.1955
28.5638
42.2293
22.6083
50.7808
17.7778
54.9952
18.8742
55.6534
13.5725
50.1191
24.3755
42.3762
25.5623
41.3264
33.0126
54.5064
22.7137
49.1667
5.3816
24.6319
5.16721
20.5176
4.35752
17.5572
3.4944
15.6163
2.71094
14.3642
1.98444
13.584
0.982321
13.0344
12.7357
0.343253
3.37082
0.663019
3.30264
0.94112
3.17447
1.16928
3.00069
1.34797
2.79733
1.48322
2.5788
1.58347
2.35632
1.65739
2.1377
1.71272
1.92793
1.75585
1.72984
1.79176
1.5448
1.82418
1.37324
1.85582
1.21502
1.88861
1.06971
1.92387
0.936702
1.96247
0.815406
2.00494
0.705266
2.05151
0.605826
2.1022
0.516764
2.1568
0.437897
2.21486
0.369171
2.27573
0.310632
2.3385
0.26236
2.40207
0.224375
2.46514
0.196504
2.52635
0.178225
2.58446
0.168555
2.63856
0.166024
2.68823
0.16881
2.73364
0.175062
2.77537
0.183284
2.81417
0.192627
2.85066
0.20296
2.88513
0.214738
2.91742
0.228705
2.94695
0.245568
2.9729
0.265709
2.99439
0.289018
3.01067
0.314888
3.02129
0.342323
3.02613
0.370129
3.02535
0.397104
3.01933
0.422187
3.00858
0.444497
2.99367
0.46328
2.97527
0.477833
2.95418
0.487455
2.93137
0.491472
2.90797
0.48933
2.88523
0.480697
2.86445
0.465544
2.84684
0.44417
2.83349
0.41718
2.82529
0.385413
2.82294
0.349877
2.82688
0.311672
2.83738
0.271934
2.85447
0.231804
2.87804
0.192411
2.90776
0.154867
2.94311
0.120261
2.98336
0.0896464
3.02754
0.0639867
3.07444
0.0440777
3.12267
0.0304243
3.17078
0.0231062
3.21742
0.0216696
3.26158
0.0251174
3.30267
0.0320477
3.34063
0.0409267
3.37581
0.0504086
3.40881
0.0595757
3.44023
0.0680272
3.4705
0.075814
3.49985
0.0832652
3.52823
0.0907858
3.55542
0.0986808
3.5811
0.107041
3.60494
0.115697
3.62671
0.124227
3.64632
0.131999
3.66392
0.138255
3.67989
0.142195
3.69478
0.143099
3.70927
0.140419
3.72409
0.133832
3.73994
0.123243
3.75742
0.108725
3.77702
0.0904544
3.79911
0.0686278
3.82396
0.0433866
3.85177
0.0147806
3.8827
-0.0172555
3.91693
-0.0529015
3.95465
-0.0924542
3.99607
-0.136319
4.0414
-0.185015
4.09091
-0.239175
4.14487
-0.299551
4.20361
-0.367047
4.2675
-0.44274
4.33696
-0.527924
4.41251
-0.624146
4.49475
-0.733265
4.58446
-0.857512
4.68268
-0.999551
4.7908
-1.16255
4.91076
-1.35026
5.04525
-1.56718
5.19806
-1.81875
5.37461
-2.11167
5.5827
-2.4548
5.83381
-2.86082
6.14622
-3.3502
6.55343
-3.96061
7.13145
-4.77208
8.10046
-5.98218
10.2479
-8.15653
16.8049
-13.1928
14.8407
-14.387
13.5025
-6.88902
12.4195
-2.46352
11.4035
-0.353867
10.2604
0.141209
8.76457
0.742071
6.67368
1.55867
3.18809
0.809138
3.47433
-1.06362
8.56948
-2.36572
61.3937
24.1087
82.3682
43.8595
63.3461
39.9606
48.5278
45.0148
37.1153
53.6417
26.8226
61.0727
18.436
63.3813
13.3399
60.7486
5.82965
57.6288
23.3257
62.968
38.7423
64.0919
27.6729
55.2752
-1.82102
30.2405
1.26731
23.2247
2.20671
19.6013
2.41665
17.4184
2.24227
15.9303
1.93084
14.9096
1.43476
14.1979
0.683615
13.6476
13.387
0.275069
3.24562
0.534856
3.19093
0.767336
3.08667
0.965918
2.94207
1.12944
2.7682
1.26074
2.57586
1.36486
2.37437
1.44761
2.17101
1.51463
1.9711
1.57081
1.77826
1.6202
1.5948
1.66596
1.42201
1.71051
1.26053
1.75561
1.11053
1.80258
0.971878
1.85233
0.844343
1.9055
0.727642
1.96245
0.621549
2.02333
0.525948
2.08807
0.440871
2.15632
0.366508
2.22745
0.303187
2.30052
0.251309
2.3742
0.211223
2.44686
0.183039
2.51668
0.166389
2.58193
0.160183
2.64134
0.162465
2.69448
0.170571
2.74187
0.181696
2.78472
0.193617
2.82451
0.205238
2.86244
0.216686
2.8991
0.22904
2.93428
0.243819
2.96709
0.262425
2.99621
0.285656
3.02025
0.313466
3.0381
0.344991
3.0491
0.378774
3.0531
0.413085
3.05043
0.446279
3.04164
0.477038
3.02737
0.50441
3.00823
0.527645
2.98489
0.545993
2.9582
0.558595
2.92923
0.564524
2.89934
0.562948
2.87008
0.553338
2.84307
0.535606
2.81984
0.510136
2.80172
0.477733
2.78976
0.439506
2.78473
0.396746
2.78714
0.350827
2.79725
0.303132
2.81508
0.255013
2.8405
0.207793
2.87315
0.162775
2.9125
0.121267
2.9577
0.0845885
3.00764
0.0540234
3.06079
0.0307176
3.11535
0.0154906
3.16934
0.00859191
3.22087
0.00946775
3.26851
0.0166774
3.31155
0.0280828
3.35011
0.0413282
3.38498
0.0544048
3.41726
0.0660705
3.44801
0.0759709
3.47795
0.0844806
3.50737
0.0923842
3.53613
0.100514
3.56378
0.109474
3.58976
0.119494
3.61347
0.130395
3.63448
0.141621
3.65257
0.152309
3.66786
0.161388
3.6808
0.167732
3.6921
0.170332
3.70268
0.168458
3.7135
0.161745
3.72542
0.150182
3.73915
0.134019
3.75519
0.113632
3.77387
0.089404
3.79535
0.0616242
3.81973
0.0304337
3.84705
-0.00419438
3.87738
-0.0424241
3.91078
-0.0845709
3.94737
-0.131068
3.98724
-0.182446
4.03053
-0.239341
4.07737
-0.302503
4.12791
-0.37282
4.18231
-0.451354
4.24074
-0.539383
4.30339
-0.638437
4.3705
-0.750361
4.44242
-0.877373
4.51969
-1.02211
4.60309
-1.18771
4.69384
-1.37787
4.79369
-1.59697
4.90513
-1.85021
5.03148
-2.14398
5.17668
-2.4867
5.34443
-2.89065
5.53581
-3.37572
5.74197
-3.97732
5.92134
-4.7617
5.9261
-5.84538
5.21165
-7.38446
15.6107
-9.39909
22.3387
-18.4784
17.928
-18.8143
14.5292
-10.7266
11.8986
-1.89693
10.8613
4.31305
9.58117
4.88304
5.92415
1.72592
1.31532
0.148226
2.17224
0.987421
35.0439
1.55945
81.1445
33.7243
78.4694
46.5342
68.4003
50.0294
57.1547
56.2607
44.5462
66.25
29.1313
76.4876
15.8033
76.7096
10.2201
66.3324
11.1688
56.6805
24.4497
49.6862
29.9257
39.1791
2.63808
18.7172
-8.83678
10.9404
-2.35609
16.7234
0.0238314
17.2286
0.928472
16.5688
1.22161
15.7615
1.21919
15.0576
0.884423
14.4473
0.423042
13.9979
13.795
0.220383
3.16494
0.430595
3.11851
0.622737
3.02913
0.792043
2.9032
0.937109
2.74874
1.05925
2.57414
1.1615
2.3872
1.2477
2.19458
1.32179
2.00164
1.38734
1.8124
1.44742
1.62976
1.50449
1.45562
1.5605
1.29114
1.61696
1.13692
1.67504
0.993198
1.73563
0.859976
1.79941
0.737181
1.86685
0.624764
1.93826
0.522788
2.01371
0.431497
2.093
0.351347
2.17558
0.283017
2.26043
0.227339
2.34601
0.185161
2.43021
0.157122
2.51048
0.14327
2.58421
0.142549
2.64945
0.152367
2.70561
0.16865
2.75379
0.186923
2.79634
0.203684
2.83596
0.217494
2.87479
0.229015
2.91388
0.240452
2.95289
0.254673
2.99032
0.274246
3.02402
0.300638
3.05178
0.333836
3.07189
0.372499
3.08341
0.414378
3.0863
0.456862
3.08119
0.497606
3.06902
0.535011
3.0506
0.568212
3.02657
0.596664
2.9975
0.619682
2.96413
0.636206
2.92765
0.644886
2.88973
0.644416
2.85235
0.633929
2.8176
0.61324
2.78744
0.582878
2.76349
0.54396
2.747
0.497984
2.73881
0.446632
2.73945
0.391625
2.74913
0.334625
2.76786
0.277203
2.79548
0.220855
2.83165
0.16706
2.87582
0.117342
2.92714
0.0733234
2.98433
0.0367151
3.04556
0.00920004
3.10845
-0.00783594
3.17022
-0.0137455
3.22808
-0.00910063
3.27991
0.00401833
3.32479
0.0222689
3.36319
0.041904
3.39665
0.0598298
3.42716
0.0743577
3.45652
0.0853371
3.48586
0.0937961
3.5155
0.101327
3.54509
0.109466
3.5738
0.119259
3.60066
0.131106
3.6247
0.144793
3.64517
0.159565
3.66165
0.174228
3.67421
0.187257
3.6834
0.197011
3.69023
0.202027
3.69597
0.201311
3.70194
0.19448
3.70926
0.181695
3.71876
0.163505
3.73096
0.140622
3.74609
0.11371
3.76416
0.0832604
3.7851
0.0495241
3.80882
0.012518
3.83523
-0.027958
3.86429
-0.0722457
3.89599
-0.120803
3.93035
-0.174176
3.96737
-0.232985
4.00706
-0.297949
4.04938
-0.369912
4.09429
-0.449875
4.14169
-0.539036
4.19146
-0.63884
4.24349
-0.751018
4.29769
-0.877647
4.35409
-1.02119
4.41293
-1.18456
4.47474
-1.37111
4.54045
-1.5847
4.61136
-1.82971
4.68876
-2.1114
4.77274
-2.43673
4.85936
-2.8162
4.9342
-3.26756
4.95759
-3.82142
4.83766
-4.51827
4.38702
-5.35844
3.19702
-6.20443
6.53142
-6.72355
22.0028
-10.639
26.0156
-7.67777
23.3589
0.46693
18.1086
1.5121
11.4313
5.39033
6.42405
10.0341
4.34645
16.8911
2.15452
25.2423
2.74427
38.4574
67.2087
63.7492
93.9545
71.6763
81.9646
58.5235
74.6315
57.3632
67.144
63.7481
54.7838
78.6105
29.3533
101.918
5.4262
100.637
0.568092
71.1909
4.17457
53.0736
13.9425
39.918
9.46379
27.243
-5.13874
15.2717
-3.05376
13.8796
-1.85086
15.4803
-0.636026
15.9979
0.1212
15.8348
0.517666
15.417
0.608953
14.932
0.435036
14.4644
0.220085
14.1538
14.0089
0.173952
3.12105
0.34122
3.07952
0.496804
2.99903
0.637583
2.88431
0.762508
2.74156
0.872303
2.57761
0.968883
2.39926
1.05476
2.21271
1.13256
2.0233
1.2047
1.83534
1.27328
1.65209
1.34001
1.47586
1.40628
1.30815
1.47324
1.14982
1.54182
1.0013
1.61284
0.862716
1.68699
0.734105
1.76487
0.615511
1.84697
0.507117
1.93356
0.409343
2.02467
0.322921
2.1199
0.248917
2.21825
0.188714
2.31797
0.143906
2.41636
0.116048
2.50976
0.106117
2.59403
0.113537
2.66573
0.135028
2.72388
0.164025
2.77055
0.193
2.81015
0.216091
2.84748
0.231466
2.88623
0.240896
2.9281
0.248583
2.97246
0.259705
3.01671
0.278806
3.05722
0.308398
3.09044
0.348351
3.11377
0.396424
3.12589
0.449031
3.12704
0.502059
3.1186
0.551972
3.10222
0.596906
3.07905
0.636497
3.04959
0.670868
3.01402
0.699631
2.97281
0.72144
2.92718
0.734189
2.87924
0.735707
2.83166
0.724538
2.78724
0.700369
2.74852
0.664009
2.71751
0.617084
2.69564
0.561681
2.6838
0.500027
2.68245
0.434276
2.6917
0.366406
2.71151
0.298187
2.74168
0.231242
2.78193
0.167154
2.8318
0.107612
2.89053
0.05455
2.95682
0.010223
3.02853
-0.02287
3.10254
-0.0423555
3.17486
-0.0466975
3.2412
-0.0361946
3.29816
-0.0138028