/*--------------------------------*- C++ -*----------------------------------*\
| =========                 |                                                 |
| \\      /  F ield         | OpenFOAM: The Open Source CFD Toolbox           |
|  \\    /   O peration     | Version:  2.1.0                                 |
|   \\  /    A nd           | Web:      www.OpenFOAM.org                      |
|    \\/     M anipulation  |                                                 |
\*---------------------------------------------------------------------------*/
FoamFile
{
    version     2.0;
    format      ascii;
    class       volScalarField;
    location    "32120";
    object      po;
}
// * * * * * * * * * * * * * * * * * * * * * * * * * * * * * * * * * * * * * //

dimensions      [1 -1 -2 0 0 0 0];

internalField   nonuniform List<scalar> 
15000
(
6533.59
6515
6503.78
6496.02
6490.16
6485.41
6481.35
6477.74
6474.43
6471.34
6468.43
6465.64
6462.95
6460.34
6457.79
6455.28
6452.8
6450.34
6447.89
6445.44
6442.98
6440.5
6438.01
6435.5
6432.95
6430.39
6427.79
6425.16
6422.5
6419.8
6417.08
6414.33
6411.55
6408.74
6405.91
6403.05
6400.18
6397.28
6394.37
6391.45
6388.51
6385.57
6382.62
6379.67
6376.72
6373.77
6370.82
6367.87
6364.93
6361.99
6359.05
6356.11
6353.17
6350.23
6347.29
6344.34
6341.38
6338.41
6335.42
6332.42
6329.4
6326.35
6323.28
6320.18
6317.05
6313.89
6310.7
6307.47
6304.22
6300.93
6297.61
6294.26
6290.87
6287.46
6284.02
6280.54
6277.04
6273.51
6269.96
6266.37
6262.76
6259.13
6255.47
6251.78
6248.06
6244.32
6240.55
6236.75
6232.92
6229.05
6225.14
6221.2
6217.21
6213.17
6209.08
6204.92
6200.71
6196.42
6192.05
6187.59
6183.03
6178.36
6173.57
6168.64
6163.55
6158.29
6152.83
6147.16
6141.23
6135.03
6128.51
6121.64
6114.38
6106.69
6098.51
6089.83
6080.58
6070.76
6060.34
6049.3
6037.64
6025.34
6012.35
5998.6
5983.97
5968.31
5951.43
5933.2
5913.56
5892.65
5870.79
5848.34
5825.61
5802.87
5780.36
5758.32
5736.95
5716.38
5696.67
5677.94
5660.38
5644.2
5629.64
5616.88
5606.01
5597.08
5590.07
5584.94
5581.55
5579.74
6514.97
6507.63
6500.31
6494.12
6488.98
6484.6
6480.75
6477.27
6474.05
6471.03
6468.16
6465.41
6462.76
6460.18
6457.65
6455.16
6452.7
6450.25
6447.81
6445.37
6442.92
6440.45
6437.96
6435.45
6432.92
6430.35
6427.76
6425.13
6422.47
6419.78
6417.05
6414.3
6411.52
6408.71
6405.88
6403.02
6400.14
6397.25
6394.33
6391.41
6388.47
6385.53
6382.58
6379.63
6376.67
6373.72
6370.77
6367.82
6364.88
6361.94
6359
6356.07
6353.13
6350.19
6347.25
6344.31
6341.35
6338.38
6335.4
6332.4
6329.38
6326.33
6323.26
6320.16
6317.04
6313.88
6310.69
6307.47
6304.21
6300.92
6297.6
6294.25
6290.87
6287.45
6284.01
6280.53
6277.03
6273.5
6269.95
6266.36
6262.75
6259.12
6255.46
6251.77
6248.05
6244.31
6240.54
6236.74
6232.91
6229.05
6225.15
6221.2
6217.22
6213.18
6209.1
6204.95
6200.74
6196.46
6192.1
6187.65
6183.1
6178.45
6173.67
6168.75
6163.68
6158.44
6153.01
6147.36
6141.46
6135.29
6128.81
6121.98
6114.76
6107.11
6098.98
6090.33
6081.11
6071.31
6060.89
6049.87
6038.23
6025.97
6013.06
5999.42
5984.94
5969.45
5952.72
5934.53
5914.75
5893.51
5871.3
5848.55
5825.55
5802.56
5779.81
5757.56
5736.09
5715.44
5695.61
5676.7
5658.9
5642.5
5627.76
5614.88
5603.97
5595.05
5588.07
5582.97
5579.6
5577.78
6503.68
6500.24
6495.69
6491.15
6486.95
6483.13
6479.62
6476.37
6473.31
6470.41
6467.64
6464.97
6462.38
6459.85
6457.36
6454.91
6452.48
6450.06
6447.65
6445.23
6442.8
6440.34
6437.87
6435.37
6432.85
6430.29
6427.7
6425.07
6422.42
6419.73
6417
6414.25
6411.47
6408.66
6405.82
6402.96
6400.08
6397.18
6394.26
6391.33
6388.39
6385.44
6382.49
6379.54
6376.58
6373.63
6370.67
6367.73
6364.78
6361.84
6358.91
6355.98
6353.05
6350.12
6347.18
6344.24
6341.29
6338.33
6335.35
6332.36
6329.34
6326.3
6323.24
6320.14
6317.02
6313.86
6310.67
6307.45
6304.2
6300.91
6297.59
6294.23
6290.85
6287.43
6283.99
6280.51
6277.01
6273.48
6269.92
6266.34
6262.73
6259.09
6255.43
6251.74
6248.03
6244.29
6240.53
6236.73
6232.9
6229.04
6225.15
6221.21
6217.24
6213.21
6209.13
6205
6200.8
6196.54
6192.19
6187.76
6183.24
6178.61
6173.86
6168.97
6163.94
6158.74
6153.36
6147.76
6141.93
6135.82
6129.42
6122.67
6115.53
6107.97
6099.92
6091.33
6082.17
6072.4
6062
6050.98
6039.37
6027.18
6014.41
6001
5986.84
5971.73
5955.36
5937.33
5917.27
5895.23
5872.26
5848.9
5825.4
5801.93
5778.66
5755.93
5734.3
5713.56
5693.54
5674.23
5655.91
5639.03
5623.91
5610.81
5599.83
5590.95
5584.05
5579.03
5575.71
5573.9
6495.84
6493.97
6491.06
6487.76
6484.43
6481.18
6478.08
6475.11
6472.27
6469.53
6466.89
6464.32
6461.82
6459.37
6456.95
6454.55
6452.17
6449.79
6447.41
6445.02
6442.62
6440.19
6437.74
6435.26
6432.74
6430.19
6427.61
6424.99
6422.34
6419.65
6416.93
6414.17
6411.39
6408.57
6405.73
6402.87
6399.98
6397.07
6394.15
6391.22
6388.27
6385.32
6382.36
6379.4
6376.44
6373.48
6370.53
6367.58
6364.64
6361.7
6358.77
6355.85
6352.92
6350
6347.07
6344.14
6341.2
6338.25
6335.28
6332.3
6329.29
6326.26
6323.2
6320.11
6316.99
6313.84
6310.65
6307.43
6304.18
6300.89
6297.57
6294.21
6290.83
6287.41
6283.96
6280.48
6276.98
6273.45
6269.89
6266.3
6262.69
6259.06
6255.39
6251.71
6248
6244.26
6240.5
6236.71
6232.89
6229.04
6225.15
6221.23
6217.26
6213.25
6209.19
6205.07
6200.9
6196.65
6192.33
6187.93
6183.44
6178.84
6174.14
6169.3
6164.32
6159.18
6153.87
6148.35
6142.61
6136.6
6130.31
6123.68
6116.68
6109.25
6101.32
6092.86
6083.78
6074.05
6063.65
6052.61
6041
6028.88
6016.3
6003.23
5989.59
5975.14
5959.49
5941.96
5921.56
5897.71
5873.5
5849.29
5825.15
5801
5776.86
5753.1
5731.49
5710.87
5690.62
5670.66
5651.37
5633.67
5617.91
5604.5
5593.48
5584.72
5578.01
5573.15
5569.92
5568.15
6489.85
6488.7
6486.74
6484.3
6481.66
6478.94
6476.23
6473.56
6470.96
6468.42
6465.93
6463.5
6461.11
6458.74
6456.41
6454.08
6451.76
6449.44
6447.11
6444.76
6442.39
6439.99
6437.57
6435.1
6432.61
6430.07
6427.5
6424.89
6422.24
6419.55
6416.83
6414.07
6411.28
6408.46
6405.62
6402.75
6399.85
6396.94
6394.01
6391.06
6388.11
6385.15
6382.18
6379.21
6376.25
6373.29
6370.33
6367.39
6364.44
6361.51
6358.59
6355.67
6352.75
6349.84
6346.93
6344.01
6341.08
6338.14
6335.19
6332.22
6329.22
6326.2
6323.15
6320.07
6316.96
6313.81
6310.63
6307.41
6304.15
6300.86
6297.54
6294.18
6290.79
6287.37
6283.92
6280.45
6276.94
6273.4
6269.84
6266.25
6262.64
6259
6255.34
6251.66
6247.95
6244.22
6240.46
6236.68
6232.87
6229.03
6225.15
6221.24
6217.29
6213.3
6209.26
6205.17
6201.01
6196.8
6192.51
6188.15
6183.7
6179.15
6174.5
6169.72
6164.82
6159.76
6154.53
6149.12
6143.5
6137.63
6131.48
6125.02
6118.2
6110.95
6103.22
6094.91
6085.96
6076.29
6065.86
6054.72
6043.03
6030.94
6018.56
6005.92
5992.99
5979.59
5965.3
5949.15
5928.99
5900.46
5874.66
5849.58
5824.85
5799.98
5774.59
5748
5727.56
5707.69
5687.3
5666.28
5645.09
5626.21
5609.42
5595.64
5584.74
5576.3
5569.95
5565.38
5562.31
5560.63
6484.95
6484.17
6482.76
6480.91
6478.79
6476.51
6474.17
6471.81
6469.45
6467.11
6464.8
6462.52
6460.25
6458
6455.76
6453.52
6451.27
6449.02
6446.74
6444.44
6442.12
6439.76
6437.36
6434.92
6432.45
6429.93
6427.36
6424.76
6422.11
6419.43
6416.71
6413.95
6411.15
6408.33
6405.48
6402.6
6399.69
6396.77
6393.83
6390.87
6387.91
6384.93
6381.96
6378.98
6376.01
6373.04
6370.08
6367.14
6364.2
6361.27
6358.35
6355.44
6352.54
6349.64
6346.74
6343.84
6340.93
6338.01
6335.08
6332.12
6329.14
6326.13
6323.1
6320.03
6316.92
6313.78
6310.6
6307.38
6304.12
6300.83
6297.51
6294.15
6290.76
6287.33
6283.88
6280.4
6276.88
6273.35
6269.78
6266.19
6262.58
6258.94
6255.28
6251.6
6247.89
6244.16
6240.41
6236.64
6232.84
6229.01
6225.15
6221.26
6217.33
6213.36
6209.34
6205.27
6201.16
6196.98
6192.73
6188.41
6184.01
6179.52
6174.93
6170.23
6165.41
6160.45
6155.34
6150.06
6144.57
6138.87
6132.92
6126.67
6120.07
6113.08
6105.6
6097.54
6088.77
6079.17
6068.65
6057.26
6045.34
6033.17
6020.95
6008.78
5996.71
5984.73
5972.71
5960.09
5944.6
5927.32
5882.73
5849.19
5823.01
5794.6
5762.8
5736.62
5722.96
5704.95
5684.52
5661.96
5636.33
5616.5
5597.74
5583.73
5573.37
5565.64
5559.91
5555.8
5552.98
5551.47
6480.71
6480.14
6479.08
6477.63
6475.9
6474
6471.98
6469.9
6467.78
6465.66
6463.53
6461.4
6459.28
6457.15
6455.02
6452.87
6450.71
6448.53
6446.32
6444.08
6441.81
6439.49
6437.13
6434.72
6432.27
6429.76
6427.21
6424.62
6421.97
6419.29
6416.57
6413.8
6411
6408.17
6405.31
6402.42
6399.51
6396.57
6393.61
6390.64
6387.66
6384.67
6381.69
6378.7
6375.72
6372.74
6369.78
6366.83
6363.9
6360.97
6358.06
6355.17
6352.28
6349.4
6346.52
6343.64
6340.75
6337.85
6334.94
6332.01
6329.05
6326.06
6323.03
6319.97
6316.88
6313.74
6310.56
6307.35
6304.09
6300.8
6297.47
6294.11
6290.71
6287.28
6283.82
6280.34
6276.82
6273.28
6269.71
6266.11
6262.5
6258.86
6255.2
6251.52
6247.81
6244.09
6240.35
6236.59
6232.8
6228.98
6225.14
6221.27
6217.36
6213.42
6209.43
6205.4
6201.31
6197.18
6192.98
6188.71
6184.37
6179.95
6175.43
6170.82
6166.1
6161.25
6156.27
6151.13
6145.82
6140.32
6134.58
6128.59
6122.28
6115.6
6108.47
6100.75
6092.29
6082.84
6072.15
6060.19
6047.76
6035.34
6023.17
6011.41
6000.2
5989.78
5980.61
5973.78
5962.81
5964.29
5911.73
5854.05
5809.28
5778.18
5754.76
5734.44
5720
5701.27
5677.46
5647.89
5621.66
5605.58
5581.14
5568
5559.23
5552.83
5548.07
5544.59
5542.13
5540.86
6476.88
6476.45
6475.62
6474.46
6473.04
6471.44
6469.7
6467.88
6466
6464.09
6462.14
6460.18
6458.2
6456.21
6454.19
6452.16
6450.09
6447.99
6445.86
6443.68
6441.46
6439.2
6436.88
6434.5
6432.07
6429.59
6427.05
6424.46
6421.82
6419.14
6416.41
6413.64
6410.83
6407.99
6405.12
6402.22
6399.29
6396.34
6393.36
6390.37
6387.38
6384.37
6381.37
6378.37
6375.37
6372.39
6369.42
6366.47
6363.54
6360.62
6357.72
6354.84
6351.97
6349.11
6346.26
6343.4
6340.54
6337.67
6334.78
6331.88
6328.94
6325.97
6322.97
6319.92
6316.83
6313.7
6310.53
6307.31
6304.06
6300.76
6297.43
6294.06
6290.66
6287.22
6283.76
6280.26
6276.74
6273.19
6269.62
6266.02
6262.4
6258.76
6255.1
6251.42
6247.72
6244
6240.27
6236.52
6232.74
6228.95
6225.12
6221.27
6217.39
6213.48
6209.52
6205.53
6201.49
6197.4
6193.25
6189.04
6184.76
6180.42
6175.99
6171.47
6166.86
6162.14
6157.3
6152.33
6147.21
6141.93
6136.45
6130.75
6124.78
6118.5
6111.8
6104.58
6096.61
6087.54
6076.71
6063.43
6050.06
6037.17
6024.92
6013.42
6002.86
5993.57
5986.16
5981.69
5975.94
5970.13
5922.51
5850.77
5796.68
5760.19
5731.62
5709.01
5691.24
5672.36
5658.79
5634.41
5608.85
5575.84
5553.13
5547.74
5542.58
5538.22
5534.72
5532.01
5530.03
5529.05
6473.32
6472.98
6472.32
6471.38
6470.21
6468.86
6467.38
6465.79
6464.14
6462.42
6460.67
6458.87
6457.05
6455.19
6453.31
6451.38
6449.42
6447.42
6445.36
6443.26
6441.1
6438.89
6436.61
6434.28
6431.87
6429.41
6426.88
6424.3
6421.66
6418.97
6416.24
6413.46
6410.65
6407.8
6404.91
6401.99
6399.05
6396.07
6393.08
6390.07
6387.05
6384.02
6381
6377.98
6374.97
6371.98
6369
6366.05
6363.11
6360.21
6357.32
6354.46
6351.61
6348.78
6345.95
6343.13
6340.3
6337.46
6334.61
6331.73
6328.82
6325.88
6322.9
6319.87
6316.79
6313.67
6310.5
6307.28
6304.02
6300.72
6297.38
6294
6290.59
6287.15
6283.68
6280.18
6276.66
6273.1
6269.52
6265.91
6262.29
6258.64
6254.98
6251.3
6247.6
6243.89
6240.17
6236.43
6232.67
6228.89
6225.1
6221.27
6217.42
6213.54
6209.62
6205.67
6201.67
6197.63
6193.54
6189.39
6185.19
6180.92
6176.58
6172.17
6167.68
6163.09
6158.41
6153.62
6148.71
6143.66
6138.47
6133.09
6127.51
6121.67
6115.53
6108.97
6101.84
6093.74
6083.49
6066.69
6051.85
6038.35
6025.93
6014.52
6004.26
5995.5
5988.82
5985.64
5982.16
5973.59
5912.2
5829.83
5766.48
5717.96
5680.84
5654.02
5635.58
5622.24
5616.41
5593.09
5554.35
5526.67
5528.49
5527.23
5525.02
5522.6
5520.36
5518.43
5517
5516.31
6469.95
6469.68
6469.14
6468.38
6467.41
6466.28
6465.02
6463.65
6462.21
6460.69
6459.12
6457.5
6455.84
6454.13
6452.37
6450.57
6448.71
6446.81
6444.85
6442.82
6440.74
6438.58
6436.35
6434.05
6431.68
6429.23
6426.71
6424.13
6421.49
6418.8
6416.05
6413.27
6410.44
6407.58
6404.68
6401.75
6398.78
6395.79
6392.77
6389.73
6386.68
6383.62
6380.57
6377.53
6374.51
6371.5
6368.51
6365.55
6362.62
6359.73
6356.86
6354.01
6351.19
6348.39
6345.6
6342.82
6340.03
6337.23
6334.42
6331.58
6328.7
6325.79
6322.83
6319.83
6316.76
6313.65
6310.48
6307.26
6303.99
6300.68
6297.33
6293.94
6290.53
6287.08
6283.6
6280.09
6276.56
6272.99
6269.4
6265.79
6262.16
6258.5
6254.84
6251.15
6247.46
6243.76
6240.05
6236.32
6232.58
6228.83
6225.05
6221.26
6217.44
6213.59
6209.71
6205.8
6201.85
6197.87
6193.84
6189.76
6185.63
6181.45
6177.21
6172.91
6168.53
6164.09
6159.57
6154.97
6150.28
6145.48
6140.58
6135.55
6130.37
6125.02
6119.49
6113.75
6107.83
6101.9
6096.69
6081.08
6058.74
6040.81
6026.28
6014.38
6003.52
5993.94
5988.02
5986.7
5984.53
5949.48
5868.34
5789.87
5721.47
5664.32
5619.77
5590.64
5574.83
5564.61
5553.45
5529
5499.07
5496.43
5505.27
5507.63
5507.6
5506.67
5505.45
5504.23
5503.35
5502.92
6466.71
6466.49
6466.06
6465.43
6464.64
6463.7
6462.65
6461.48
6460.24
6458.91
6457.53
6456.08
6454.58
6453.01
6451.4
6449.72
6447.99
6446.19
6444.32
6442.38
6440.37
6438.28
6436.1
6433.84
6431.49
6429.06
6426.55
6423.97
6421.32
6418.61
6415.86
6413.06
6410.23
6407.35
6404.44
6401.49
6398.5
6395.47
6392.42
6389.35
6386.26
6383.18
6380.1
6377.03
6373.98
6370.95
6367.95
6364.99
6362.06
6359.17
6356.32
6353.5
6350.71
6347.95
6345.2
6342.47
6339.73
6336.98
6334.21
6331.41
6328.58
6325.71
6322.78
6319.79
6316.75
6313.64
6310.47
6307.24
6303.96
6300.64
6297.27
6293.88
6290.45
6286.99
6283.51
6279.99
6276.45
6272.87
6269.27
6265.65
6262
6258.34
6254.67
6250.98
6247.29
6243.6
6239.9
6236.19
6232.47
6228.74
6224.99
6221.23
6217.44
6213.63
6209.8
6205.93
6202.04
6198.11
6194.14
6190.13
6186.08
6181.99
6177.85
6173.66
6169.41
6165.11
6160.76
6156.35
6151.87
6147.33
6142.72
6138.03
6133.26
6128.4
6123.47
6118.51
6113.67
6109.28
6106.09
6099.56
6077.55
6051.54
6028.18
6010.07
5998.64
5992.21
5987.87
5985.71
5982.97
5915.76
5821.81
5739.84
5665.21
5598.07
5543.28
5513.93
5508.5
5507.93
5503.76
5489.82
5480.35
5485.49
5488.55
5490.4
5491.03
5490.91
5490.39
5489.78
5489.35
5489.13
6463.54
6463.37
6463.03
6462.53
6461.89
6461.13
6460.26
6459.29
6458.23
6457.1
6455.9
6454.62
6453.28
6451.88
6450.4
6448.86
6447.25
6445.56
6443.8
6441.95
6440.02
6437.99
6435.87
6433.65
6431.34
6428.92
6426.41
6423.82
6421.15
6418.43
6415.66
6412.85
6410
6407.11
6404.18
6401.21
6398.2
6395.14
6392.05
6388.93
6385.81
6382.68
6379.56
6376.46
6373.38
6370.33
6367.32
6364.34
6361.42
6358.54
6355.71
6352.92
6350.17
6347.45
6344.76
6342.07
6339.39
6336.7
6333.99
6331.25
6328.46
6325.63
6322.74
6319.79
6316.76
6313.65
6310.48
6307.24
6303.94
6300.6
6297.21
6293.8
6290.37
6286.9
6283.41
6279.88
6276.33
6272.74
6269.13
6265.49
6261.83
6258.15
6254.47
6250.78
6247.09
6243.4
6239.71
6236.02
6232.33
6228.62
6224.91
6221.18
6217.43
6213.66
6209.87
6206.05
6202.21
6198.34
6194.44
6190.5
6186.53
6182.53
6178.49
6174.41
6170.29
6166.14
6161.94
6157.72
6153.46
6149.16
6144.83
6140.47
6136.08
6131.67
6127.29
6123.03
6119.03
6115.49
6112.81
6110.19
6085.23
6051.07
6026.67
6004.68
5988.6
5975.32
5962.63
5947.26
5919.22
5844.08
5763.28
5682.48
5601.46
5519.45
5441.36
5413.29
5437.31
5454.86
5463.84
5462.57
5465.08
5471.61
5473.07
5474.4
5475.2
5475.49
5475.46
5475.32
5475.2
5475.12
6460.42
6460.29
6460.03
6459.65
6459.15
6458.55
6457.86
6457.08
6456.21
6455.27
6454.25
6453.15
6451.98
6450.73
6449.4
6448
6446.52
6444.95
6443.29
6441.54
6439.69
6437.74
6435.68
6433.51
6431.22
6428.81
6426.3
6423.68
6420.99
6418.23
6415.44
6412.61
6409.76
6406.86
6403.92
6400.93
6397.89
6394.79
6391.65
6388.48
6385.31
6382.13
6378.97
6375.82
6372.71
6369.63
6366.6
6363.61
6360.68
6357.81
6355.01
6352.26
6349.55
6346.89
6344.26
6341.64
6339.03
6336.4
6333.76
6331.08
6328.36
6325.58
6322.73
6319.81
6316.8
6313.7
6310.52
6307.25
6303.93
6300.55
6297.15
6293.72
6290.27
6286.8
6283.3
6279.77
6276.2
6272.6
6268.97
6265.31
6261.63
6257.94
6254.24
6250.54
6246.85
6243.17
6239.5
6235.83
6232.16
6228.48
6224.8
6221.11
6217.4
6213.67
6209.93
6206.16
6202.37
6198.56
6194.72
6190.86
6186.97
6183.06
6179.11
6175.14
6171.15
6167.13
6163.1
6159.05
6154.99
6150.92
6146.85
6142.78
6138.73
6134.73
6130.87
6127.25
6123.95
6120.84
6117.06
6116.05
6094.87
6055.76
6022.74
5993.38
5967.18
5942.18
5915.81
5884.3
5841.2
5778.07
5704.76
5625.33
5538.7
5436.93
5352.48
5335.5
5372.59
5410.36
5434.58
5445.1
5450.88
5456.61
5457.77
5458.99
5459.91
5460.48
5460.79
5460.95
5461.02
5461.04
6457.31
6457.22
6457.03
6456.76
6456.4
6455.96
6455.45
6454.85
6454.17
6453.42
6452.58
6451.66
6450.66
6449.58
6448.41
6447.15
6445.8
6444.35
6442.81
6441.17
6439.41
6437.54
6435.55
6433.43
6431.16
6428.76
6426.23
6423.57
6420.83
6418.03
6415.2
6412.36
6409.5
6406.61
6403.67
6400.66
6397.58
6394.44
6391.24
6388
6384.76
6381.52
6378.3
6375.11
6371.96
6368.85
6365.78
6362.78
6359.84
6356.99
6354.21
6351.5
6348.86
6346.26
6343.7
6341.16
6338.63
6336.08
6333.52
6330.92
6328.27
6325.55
6322.76
6319.88
6316.89
6313.8
6310.59
6307.29
6303.92
6300.5
6297.06
6293.61
6290.15
6286.68
6283.18
6279.65
6276.07
6272.45
6268.8
6265.12
6261.41
6257.69
6253.97
6250.26
6246.56
6242.89
6239.23
6235.59
6231.95
6228.31
6224.66
6221.01
6217.34
6213.66
6209.96
6206.25
6202.51
6198.76
6194.99
6191.2
6187.39
6183.56
6179.71
6175.85
6171.97
6168.08
6164.19
6160.3
6156.42
6152.56
6148.71
6144.9
6141.15
6137.54
6134.18
6131.19
6128.67
6126.87
6123
6120.76
6097.53
6054.37
6015.14
5978.91
5944.57
5910.39
5874.15
5832.94
5783.21
5722.25
5652.36
5575.36
5491.1
5396.99
5337.3
5329.66
5342.92
5379.39
5412.48
5429.63
5432.96
5440.89
5442.51
5443.97
5445.08
5445.86
5446.38
5446.71
5446.9
5446.98
6454.18
6454.13
6454.02
6453.85
6453.63
6453.35
6453.01
6452.6
6452.12
6451.56
6450.92
6450.18
6449.36
6448.44
6447.43
6446.32
6445.11
6443.79
6442.37
6440.84
6439.19
6437.41
6435.49
6433.42
6431.19
6428.79
6426.22
6423.5
6420.67
6417.8
6414.93
6412.08
6409.23
6406.36
6403.43
6400.41
6397.3
6394.09
6390.81
6387.49
6384.15
6380.84
6377.56
6374.33
6371.13
6367.97
6364.86
6361.83
6358.88
6356.04
6353.29
6350.64
6348.07
6345.55
6343.08
6340.64
6338.2
6335.75
6333.28
6330.76
6328.2
6325.56
6322.84
6320.01
6317.05
6313.96
6310.72
6307.36
6303.92
6300.43
6296.95
6293.48
6290.02
6286.55
6283.06
6279.53
6275.94
6272.31
6268.62
6264.91
6261.16
6257.4
6253.65
6249.92
6246.22
6242.56
6238.92
6235.31
6231.7
6228.1
6224.5
6220.88
6217.26
6213.62
6209.97
6206.31
6202.63
6198.94
6195.23
6191.51
6187.78
6184.03
6180.27
6176.51
6172.74
6168.97
6165.2
6161.46
6157.73
6154.03
6150.36
6146.77
6143.3
6140.06
6137.15
6134.65
6132.69
6131.47
6129.06
6124.99
6097.55
6049.06
6004.54
5962.56
5921.78
5880.68
5837.46
5790.08
5736.47
5675.33
5607.09
5532.67
5453.33
5372.36
5327.94
5323.56
5321.81
5351.81
5394.15
5416.09
5417.28
5424.3
5427.5
5429.41
5430.71
5431.61
5432.24
5432.65
5432.89
5433
6451
6450.98
6450.95
6450.9
6450.82
6450.71
6450.55
6450.34
6450.07
6449.71
6449.26
6448.72
6448.07
6447.33
6446.47
6445.52
6444.45
6443.28
6441.99
6440.57
6439.04
6437.36
6435.53
6433.52
6431.34
6428.94
6426.32
6423.48
6420.51
6417.52
6414.6
6411.75
6408.94
6406.12
6403.23
6400.22
6397.05
6393.76
6390.38
6386.93
6383.48
6380.08
6376.74
6373.46
6370.21
6366.99
6363.83
6360.75
6357.78
6354.95
6352.24
6349.66
6347.17
6344.76
6342.4
6340.06
6337.73
6335.4
6333.03
6330.62
6328.16
6325.62
6322.98
6320.23
6317.32
6314.23
6310.94
6307.48
6303.91
6300.32
6296.78
6293.29
6289.85
6286.41
6282.94
6279.42
6275.82
6272.16
6268.45
6264.68
6260.88
6257.07
6253.27
6249.51
6245.8
6242.15
6238.55
6234.97
6231.42
6227.86
6224.3
6220.73
6217.15
6213.55
6209.95
6206.34
6202.72
6199.08
6195.44
6191.79
6188.13
6184.46
6180.79
6177.11
6173.43
6169.76
6166.11
6162.47
6158.86
6155.29
6151.77
6148.37
6145.18
6142.28
6139.72
6137.59
6135.98
6135.04
6133.54
6127.43
6092.46
6039.78
5991.4
5945.01
5899.32
5853.08
5804.93
5753.44
5697.27
5635.52
5567.98
5494.89
5417.2
5345.56
5317.64
5317.35
5316.33
5338.56
5379.98
5402.62
5408.9
5411.56
5413.85
5415.55
5416.79
5417.7
5418.33
5418.76
5419.01
5419.13
6447.73
6447.75
6447.8
6447.87
6447.94
6448.02
6448.06
6448.07
6448.01
6447.86
6447.62
6447.28
6446.82
6446.25
6445.56
6444.76
6443.85
6442.81
6441.66
6440.38
6438.96
6437.4
6435.67
6433.76
6431.63
6429.25
6426.59
6423.52
6420.32
6417.1
6414.15
6411.33
6408.6
6405.89
6403.1
6400.12
6396.9
6393.49
6389.96
6386.34
6382.71
6379.21
6375.83
6372.51
6369.2
6365.92
6362.67
6359.51
6356.51
6353.68
6351.04
6348.54
6346.17
6343.88
6341.64
6339.44
6337.24
6335.03
6332.79
6330.5
6328.16
6325.74
6323.21
6320.56
6317.72
6314.65
6311.29
6307.65
6303.89
6300.13
6296.52
6293.03
6289.63
6286.26
6282.84
6279.33
6275.73
6272.04
6268.28
6264.45
6260.58
6256.68
6252.8
6249
6245.29
6241.66
6238.1
6234.59
6231.09
6227.58
6224.07
6220.55
6217.01
6213.46
6209.9
6206.34
6202.77
6199.19
6195.62
6192.03
6188.44
6184.84
6181.24
6177.65
6174.05
6170.46
6166.88
6163.32
6159.79
6156.31
6152.93
6149.74
6146.8
6144.17
6141.88
6140
6138.61
6137.8
6136.91
6119.58
6075.78
6026.2
5976.26
5926.77
5877.4
5827.38
5775.75
5721.49
5663.65
5601.48
5534.44
5461.69
5380.82
5322.47
5312.59
5312.11
5312.74
5327.66
5365.75
5390.54
5397.88
5399.24
5400.81
5402.18
5403.27
5404.08
5404.65
5405.04
5405.27
5405.38
6444.34
6444.41
6444.54
6444.74
6444.98
6445.26
6445.53
6445.78
6445.95
6446.04
6446.02
6445.88
6445.61
6445.22
6444.7
6444.06
6443.3
6442.41
6441.4
6440.26
6438.99
6437.56
6435.95
6434.14
6432.12
6429.79
6427.21
6423.65
6420.1
6416.38
6413.51
6410.76
6408.2
6405.71
6403.11
6400.23
6396.87
6393.3
6389.58
6385.71
6381.78
6378.18
6374.81
6371.49
6368.15
6364.76
6361.37
6358.07
6355.01
6352.2
6349.63
6347.26
6345.03
6342.9
6340.82
6338.77
6336.72
6334.66
6332.55
6330.4
6328.19
6325.91
6323.53
6321.03
6318.32
6315.32
6311.89
6307.92
6303.82
6299.76
6296.09
6292.63
6289.34
6286.11
6282.8
6279.3
6275.67
6271.94
6268.13
6264.23
6260.25
6256.23
6252.22
6248.36
6244.64
6241.06
6237.58
6234.14
6230.71
6227.28
6223.82
6220.33
6216.83
6213.32
6209.81
6206.3
6202.78
6199.27
6195.75
6192.22
6188.7
6185.17
6181.64
6178.11
6174.57
6171.03
6167.49
6163.97
6160.48
6157.09
6153.87
6150.88
6148.15
6145.72
6143.63
6141.93
6140.64
6139.81
6139.05
6114.75
6064.86
6012.99
5960.66
5908.42
5856.14
5803.29
5749.2
5693.11
5634.34
5572.33
5506.61
5436.63
5361.14
5315.12
5309.47
5308.91
5310.12
5324.83
5357.63
5378.41
5385.63
5386.73
5387.99
5389.13
5390.03
5390.7
5391.17
5391.47
5391.65
5391.74
6440.79
6440.9
6441.13
6441.47
6441.91
6442.42
6442.95
6443.47
6443.91
6444.25
6444.47
6444.54
6444.46
6444.25
6443.9
6443.42
6442.81
6442.07
6441.21
6440.23
6439.1
6437.83
6436.37
6434.68
6432.86
6430.5
6428.75
6424.82
6418.99
6414.76
6412.7
6409.95
6407.7
6405.58
6403.37
6400.75
6397.01
6393.23
6389.3
6385.08
6380.44
6376.89
6373.67
6370.45
6367.09
6363.56
6359.93
6356.37
6353.2
6350.44
6348
6345.8
6343.75
6341.82
6339.93
6338.06
6336.19
6334.28
6332.32
6330.32
6328.26
6326.14
6323.95
6321.65
6319.17
6316.38
6312.99
6308.26
6303.66
6298.96
6295.4
6292.03
6288.96
6285.99
6282.89
6279.37
6275.67
6271.89
6268.01
6264.04
6259.94
6255.71
6251.43
6247.52
6243.82
6240.33
6236.96
6233.64
6230.31
6226.94
6223.54
6220.1
6216.63
6213.15
6209.68
6206.21
6202.76
6199.3
6195.84
6192.37
6188.9
6185.43
6181.96
6178.48
6174.98
6171.46
6167.93
6164.41
6160.98
6157.7
6154.62
6151.77
6149.2
6146.92
6145
6143.44
6142.22
6141.05
6140.3
6111.8
6055.92
6000.24
5944.97
5890.12
5835.43
5780.45
5724.64
5667.42
5608.29
5546.87
5483.04
5417.07
5349.78
5312.3
5308.3
5308.45
5309.52
5313.63
5340.88
5364.44
5372.62
5374.04
5375.32
5376.32
5377.04
5377.54
5377.85
5378.03
5378.13
5378.17
6437.03
6437.19
6437.53
6438.02
6438.68
6439.46
6440.32
6441.15
6441.91
6442.53
6442.98
6443.27
6443.4
6443.36
6443.17
6442.85
6442.39
6441.81
6441.1
6440.27
6439.32
6438.24
6436.95
6435.29
6434.08
6432.43
6429.51
6423.67
6417.8
6413.97
6411.03
6408.58
6407.02
6405.5
6404
6402.34
6399.55
6394.37
6388.03
6382.32
6377.96
6375.2
6372.5
6369.5
6366.15
6362.42
6358.37
6354.22
6350.94
6348.31
6346.09
6344.13
6342.34
6340.64
6338.98
6337.33
6335.64
6333.9
6332.11
6330.25
6328.35
6326.41
6324.43
6322.42
6320.31
6317.98
6315.37
6310.15
6302.63
6296.99
6294.46
6291.08
6288.41
6285.98
6283.34
6279.55
6275.71
6271.86
6267.95
6263.91
6259.69
6255.17
6250.23
6246.42
6242.73
6239.41
6236.24
6233.09
6229.88
6226.6
6223.25
6219.84
6216.39
6212.93
6209.49
6206.08
6202.68
6199.28
6195.88
6192.47
6189.05
6185.63
6182.2
6178.75
6175.27
6171.74
6168.21
6164.73
6161.36
6158.14
6155.15
6152.41
6149.94
6147.78
6145.99
6144.63
6143.77
6142.4
6140.85
6108.38
6046.78
5987.09
5928.86
5871.65
5815.01
5758.45
5701.49
5643.65
5584.52
5523.83
5461.6
5398.84
5339.85
5310.92
5307.99
5308.05
5308.73
5311.4
5333.66
5353.01
5358.9
5361.49
5362.93
5363.78
5364.29
5364.55
5364.66
5364.68
5364.67
5364.66
6433.02
6433.23
6433.67
6434.34
6435.25
6436.36
6437.61
6438.85
6439.97
6440.89
6441.61
6442.11
6442.42
6442.56
6442.53
6442.35
6442.04
6441.61
6441.06
6440.39
6439.6
6438.77
6437.85
6436.68
6434.75
6429.6
6424.16
6418.52
6414.43
6411.35
6409.34
6407.59
6406.25
6405.36
6404.72
6403.72
6399.45
6392.5
6385.58
6379.72
6375.96
6373.39
6371.58
6368.88
6365.52
6361.56
6356.87
6351.16
6347.98
6345.72
6343.87
6342.26
6340.79
6339.38
6337.99
6336.58
6335.11
6333.55
6331.91
6330.2
6328.44
6326.66
6324.92
6323.23
6321.61
6319.83
6318.01
6309.8
6300.35
6295.17
6292.39
6289.37
6287.59
6286.11
6284.89
6282.35
6276.31
6271.15
6268.44
6263.76
6257.51
6252.11
6247.84
6245.13
6241.21
6238.28
6235.46
6232.53
6229.47
6226.28
6222.98
6219.57
6216.11
6212.63
6209.23
6205.89
6202.55
6199.22
6195.86
6192.5
6189.12
6185.73
6182.32
6178.91
6175.47
6172
6168.48
6164.98
6161.59
6158.37
6155.43
6152.76
6150.37
6148.28
6146.56
6145.3
6144.57
6143.52
6140.83
6102.94
6035.73
5972.46
5911.73
5852.63
5794.5
5736.85
5679.21
5621.16
5562.32
5502.31
5440.7
5376.84
5325.51
5308.55
5307.6
5307.65
5307.67
5309.57
5329.34
5346.3
5348.45
5350.11
5351.11
5351.61
5351.77
5351.71
5351.55
5351.36
5351.21
5351.12
6428.72
6428.97
6429.49
6430.33
6431.52
6433.06
6434.85
6436.61
6438.14
6439.4
6440.37
6441.09
6441.57
6441.86
6441.97
6441.94
6441.77
6441.48
6441.08
6440.57
6439.87
6439.33
6438.4
6433.05
6427.22
6420.15
6414.89
6410.69
6407.78
6406.13
6405.94
6406.55
6405.57
6404.93
6404.8
6403.88
6398.18
6389.08
6381.28
6375.03
6370.8
6369.73
6369.9
6368.18
6364.23
6358.06
6350.96
6345.48
6344.07
6342.65
6341.37
6340.21
6339.12
6338.06
6336.99
6335.85
6334.61
6333.25
6331.74
6330.15
6328.5
6326.85
6325.3
6323.95
6323.01
6321.92
6316.16
6304.27
6294.47
6288.52
6285.82
6285.59
6286.43
6285.92
6285.28
6282.1
6274.36
6266.31
6261.89
6258.4
6253.65
6249.49
6245.25
6241.75
6238.64
6236.99
6234.7
6232.05
6229.13
6226.01
6222.73
6219.31
6215.77
6212.19
6208.86
6205.62
6202.37
6199.1
6195.79
6192.45
6189.09
6185.74
6182.4
6179.08
6175.75
6172.35
6168.72
6165.14
6161.65
6158.32
6155.44
6152.85
6150.49
6148.4
6146.69
6145.43
6144.73
6143.76
6139.69
6092.34
6020.73
5955.3
5892.99
5832.62
5773.53
5715.23
5657.33
5599.47
5541.3
5482.39
5422.07
5358.95
5316.33
5307.59
5307.15
5307.26
5307.42
5308.49
5323.01
5337.55
5338.52
5339.38
5339.79
5339.78
5339.47
5338.99
5338.47
5338.02
5337.68
5337.5
6424.08
6424.35
6424.93
6425.89
6427.36
6429.44
6432.03
6434.51
6436.54
6438.13
6439.33
6440.23
6440.86
6441.28
6441.52
6441.6
6441.56
6441.41
6441.17
6440.87
6440.33
6438.58
6431.51
6421.7
6414.69
6408.89
6404.56
6401.56
6399.86
6399.44
6400.46
6403.2
6404.45
6404.52
6403.72
6402.47
6395.23
6384.34
6375.44
6367.67
6363.28
6365.43
6366.33
6363.03
6354.74
6346.39
6342.75
6340.7
6340.12
6339.42
6338.72
6338.04
6337.39
6336.73
6336.01
6335.19
6334.21
6333.04
6331.64
6330.11
6328.51
6326.92
6325.42
6324.23
6323.48
6322.8
6313.41
6297.35
6284.3
6275
6269.75
6270.02
6275.94
6282.14
6282.26
6275.27
6264.65
6255.84
6252.24
6250.32
6247.09
6244.49
6241.43
6238.93
6237.52
6236.28
6234.26
6231.76
6228.93
6225.84
6222.57
6219.1
6215.41
6211.43
6208.33
6205.27
6202.14
6198.93
6195.66
6192.36
6189.05
6185.76
6182.49
6179.28
6176.12
6172.91
6168.93
6165.21
6161.55
6157.83
6155.15
6152.7
6150.35
6148.14
6146.36
6145.01
6144.26
6143.36
6122.95
6064.73
5999.57
5935.01
5872.3
5811.33
5751.76
5693.22
5635.42
5578.09
5521.01
5463.89
5406.22
5347.12
5311.38
5306.34
5306.56
5306.84
5307.23
5309.12
5317.1
5327.84
5328.7
5329.09
5328.91
5328.26
5327.32
5326.3
5325.34
5324.54
5323.99
5323.7
6419.1
6419.34
6419.89
6420.87
6422.52
6425.21
6429.27
6432.79
6435.32
6437.17
6438.55
6439.58
6440.32
6440.83
6441.16
6441.34
6441.4
6441.36
6441.27
6440.49
6434.31
6426.8
6416.43
6407.55
6400.94
6396.15
6392.92
6391.12
6390.68
6391.32
6393.25
6397.29
6401.82
6399.93
6399.84
6399.71
6389.67
6377.61
6368.49
6361.15
6358.35
6361.94
6363.04
6355.23
6343.47
6335.75
6336.33
6336.31
6336.25
6336.13
6335.99
6335.82
6335.63
6335.4
6335.09
6334.64
6333.95
6333.03
6331.62
6330.09
6328.49
6326.86
6325.19
6324.02
6323.18
6322.05
6308.84
6287.42
6270.37
6257.43
6247.95
6244.28
6248.16
6250.53
6261.99
6262.25
6254.69
6250.21
6248.28
6246.04
6243.63
6242.18
6240.31
6238.64
6237.57
6235.6
6233.51
6231.21
6228.15
6224.96
6221.92
6218.3
6213.61
6209.73
6207.67
6204.96
6201.96
6198.81
6195.58
6192.31
6189.01
6185.76
6182.55
6179.43
6176.55
6174.23
6168.52
6165.22
6160.28
6156.29
6154.63
6152.47
6150.08
6147.45
6145.59
6144
6143.1
6141.75
6109.53
6044.05
5977.82
5912.88
5849.86
5788.64
5728.95
5670.48
5613.02
5556.47
5500.77
5445.93
5391.81
5337.86
5307.77
5305.09
5305.7
5306.32
5307.25
5309.02
5312.08
5317.64
5319.34
5319.39
5318.48
5317.01
5315.27
5313.55
5312.03
5310.84
5310.03
5309.62
6413.79
6413.96
6414.35
6415.1
6416.54
6419.55
6426.94
6431.99
6434.7
6436.61
6438.06
6439.16
6439.93
6440.51
6440.9
6441.14
6441.3
6441.33
6435.78
6429.08
6418.72
6409.47
6399.84
6391.15
6385.38
6381.83
6379.86
6379.33
6380.4
6381.91
6383.93
6386.68
6390.37
6388.45
6388.75
6387.6
6377.46
6367.93
6359.75
6352.82
6349.91
6351.71
6351.23
6344.5
6335.7
6330.52
6330.37
6331.94
6332.39
6332.84
6333.24
6333.58
6333.88
6334.12
6334.28
6334.28
6333.9
6333.44
6332.18
6329.96
6328.01
6326.09
6324.42
6323.44
6322.02
6318.8
6300.58
6273.15
6252.33
6236.4
6223.85
6218.46
6219.02
6213.12
6234.14
6255.03
6250.52
6248.39
6248.24
6245.81
6243.21
6241.43
6240.09
6239.07
6229.77
6221.93
6217.57
6214.07
6210.67
6207.45
6204.33
6200.9
6197.08
6193.74
6191.37
6189.06
6186.86
6185.16
6185.14
6188.52