/*--------------------------------*- C++ -*----------------------------------*\
| =========                 |                                                 |
| \\      /  F ield         | OpenFOAM: The Open Source CFD Toolbox           |
|  \\    /   O peration     | Version:  2.1.0                                 |
|   \\  /    A nd           | Web:      www.OpenFOAM.org                      |
|    \\/     M anipulation  |                                                 |
\*---------------------------------------------------------------------------*/
FoamFile
{
    version     2.0;
    format      ascii;
    class       volScalarField;
    location    "32120";
    object      so;
}
// * * * * * * * * * * * * * * * * * * * * * * * * * * * * * * * * * * * * * //

dimensions      [0 0 0 0 0 0 0];

internalField   nonuniform List<scalar> 
15000
(
0.2
0.200001
0.200026
0.200581
0.203635
0.210969
0.221914
0.234658
0.247847
0.26079
0.273195
0.284958
0.29606
0.306515
0.316354
0.325611
0.334321
0.34252
0.350244
0.357524
0.364393
0.370882
0.377019
0.382833
0.38835
0.393596
0.398594
0.403369
0.407942
0.412332
0.416556
0.420629
0.424564
0.428373
0.432066
0.435654
0.439144
0.442546
0.445867
0.449115
0.452296
0.455416
0.45848
0.461494
0.46446
0.467384
0.470268
0.473114
0.475926
0.478705
0.481451
0.484165
0.486848
0.489497
0.492114
0.494697
0.497246
0.499759
0.502236
0.504675
0.507077
0.50944
0.511765
0.514052
0.516302
0.518514
0.520691
0.522834
0.524943
0.52702
0.529067
0.531086
0.533079
0.535046
0.53699
0.538913
0.540815
0.542699
0.544565
0.546416
0.548251
0.550074
0.551884
0.553683
0.555471
0.557249
0.559019
0.56078
0.562533
0.564277
0.566014
0.567743
0.569465
0.571179
0.572885
0.574583
0.57627
0.577948
0.579615
0.58127
0.582912
0.58454
0.586152
0.587747
0.589324
0.590881
0.592417
0.593931
0.595421
0.596887
0.59833
0.599748
0.601145
0.60252
0.603876
0.605217
0.606543
0.607856
0.609159
0.610457
0.611761
0.61309
0.614475
0.615959
0.617591
0.619417
0.621447
0.623593
0.625632
0.627301
0.628565
0.629482
0.630177
0.630885
0.631613
0.63237
0.633168
0.634015
0.63492
0.635898
0.636971
0.638177
0.639571
0.641241
0.643335
0.646152
0.650616
0.660953
0.693096
0.761469
0.200001
0.200005
0.200133
0.201377
0.20584
0.214403
0.225861
0.238589
0.251532
0.264165
0.276268
0.28776
0.298626
0.30888
0.318549
0.327661
0.336248
0.344342
0.351976
0.359178
0.365979
0.372409
0.378494
0.384261
0.389736
0.394944
0.399908
0.404651
0.409196
0.413561
0.417761
0.421811
0.425724
0.429511
0.433182
0.436748
0.440216
0.443597
0.446897
0.450124
0.453285
0.456385
0.459429
0.462423
0.46537
0.468275
0.471141
0.473971
0.476768
0.479532
0.482266
0.484968
0.48764
0.49028
0.492888
0.495465
0.498008
0.500517
0.50299
0.505426
0.507826
0.510187
0.512511
0.514798
0.517047
0.51926
0.521437
0.52358
0.525689
0.527767
0.529815
0.531835
0.533828
0.535797
0.537743
0.539667
0.541571
0.543457
0.545325
0.547178
0.549017
0.550843
0.552656
0.554459
0.556252
0.558037
0.559813
0.561582
0.563344
0.565099
0.566847
0.568591
0.570329
0.572062
0.573789
0.57551
0.577225
0.578934
0.580637
0.582333
0.584021
0.585701
0.587373
0.589036
0.590691
0.592337
0.593976
0.595608
0.597235
0.598861
0.60049
0.602128
0.603782
0.605464
0.607185
0.608959
0.610796
0.612699
0.614665
0.616692
0.618797
0.621028
0.623472
0.626253
0.629531
0.633462
0.638112
0.643241
0.648072
0.651586
0.65392
0.655357
0.656222
0.656806
0.657128
0.657241
0.657267
0.657255
0.657173
0.65696
0.656594
0.656127
0.655667
0.655378
0.655482
0.656348
0.659022
0.668216
0.700885
0.767135
0.200025
0.200129
0.200842
0.203679
0.210102
0.21985
0.231564
0.244029
0.256524
0.268689
0.280362
0.291481
0.30203
0.312017
0.321458
0.330379
0.338803
0.346757
0.354269
0.361367
0.368076
0.374424
0.380435
0.386136
0.391551
0.396704
0.401618
0.406316
0.410819
0.415143
0.419305
0.423318
0.427195
0.430946
0.434583
0.438114
0.441549
0.444896
0.448163
0.451357
0.454485
0.457553
0.460566
0.463529
0.466447
0.469325
0.472165
0.474972
0.477746
0.48049
0.483205
0.485891
0.488548
0.491176
0.493774
0.496342
0.498879
0.501382
0.503851
0.506285
0.508682
0.511042
0.513364
0.51565
0.517898
0.52011
0.522287
0.524428
0.526537
0.528614
0.530661
0.53268
0.534673
0.536641
0.538585
0.540509
0.542412
0.544297
0.546165
0.548019
0.549858
0.551685
0.553501
0.555306
0.557103
0.558892
0.560674
0.56245
0.56422
0.565985
0.567746
0.569504
0.571258
0.57301
0.574759
0.576506
0.578251
0.579993
0.581735
0.583474
0.585213
0.586951
0.58869
0.59043
0.592174
0.593923
0.595681
0.597453
0.599246
0.601068
0.602932
0.604856
0.606864
0.60899
0.611274
0.613758
0.616474
0.619419
0.62255
0.625812
0.629202
0.632803
0.636787
0.641408
0.646997
0.653915
0.66238
0.671997
0.680938
0.686227
0.689403
0.691268
0.692289
0.69252
0.691939
0.690655
0.68918
0.687669
0.685971
0.683856
0.681221
0.678191
0.674994
0.671933
0.669355
0.667725
0.668257
0.676298
0.709882
0.773068
0.200551
0.201325
0.203616
0.208665
0.216782
0.227155
0.238713
0.25067
0.262565
0.274153
0.285314
0.295992
0.306167
0.315838
0.325012
0.333705
0.341935
0.349722
0.357089
0.36406
0.370657
0.376904
0.382825
0.388444
0.393783
0.398867
0.403717
0.408356
0.412803
0.417074
0.421185
0.425148
0.428976
0.432679
0.436268
0.439753
0.443141
0.446442
0.449664
0.452813
0.455896
0.458921
0.461891
0.464814
0.467694
0.470535
0.473342
0.476116
0.478862
0.481579
0.484271
0.486936
0.489576
0.492189
0.494775
0.497333
0.499862
0.502359
0.504823
0.507254
0.509648
0.512006
0.514327
0.516612
0.518859
0.521069
0.523243
0.525383
0.527489
0.529563
0.531608
0.533624
0.535614
0.537579
0.539521
0.541442
0.543342
0.545225
0.547091
0.548943
0.550781
0.552607
0.554423
0.556229
0.558028
0.559821
0.561608
0.56339
0.565167
0.566942
0.568715
0.570487
0.572258
0.57403
0.575803
0.577576
0.579352
0.581132
0.582915
0.584704
0.586498
0.588301
0.590114
0.591942
0.593786
0.595654
0.597552
0.59949
0.601483
0.603549
0.605716
0.608026
0.610536
0.61333
0.616508
0.620175
0.62439
0.629106
0.634133
0.639231
0.64434
0.649608
0.655339
0.661975
0.670082
0.680317
0.693175
0.708199
0.721878
0.727048
0.730164
0.732255
0.733546
0.733551
0.731947
0.72858
0.72523
0.722207
0.718974
0.714875
0.709585
0.703431
0.696845
0.690359
0.684527
0.679973
0.67815
0.685279
0.720368
0.779118
0.203429
0.205588
0.209833
0.216587
0.22551
0.235848
0.246904
0.258187
0.269395
0.280352
0.290959
0.301162
0.310932
0.320258
0.329139
0.337581
0.345595
0.353196
0.360401
0.367229
0.373698
0.379831
0.385648
0.391171
0.396423
0.401425
0.4062
0.410768
0.415147
0.419352
0.423399
0.4273
0.431067
0.43471
0.438239
0.441665
0.444995
0.448238
0.451402
0.454494
0.457521
0.46049
0.463408
0.46628
0.469111
0.471907
0.47467
0.477405
0.480115
0.4828
0.485463
0.488103
0.490721
0.493317
0.495889
0.498436
0.500956
0.503447
0.505907
0.508334
0.510726
0.513083
0.515402
0.517685
0.51993
0.522138
0.52431
0.526446
0.528549
0.53062
0.53266
0.534673
0.536658
0.538618
0.540555
0.542471
0.544367
0.546245
0.548107
0.549955
0.55179
0.553613
0.555427
0.557233
0.559032
0.560827
0.562617
0.564404
0.566189
0.567974
0.569759
0.571545
0.573334
0.575126
0.576923
0.578725
0.580535
0.582354
0.584183
0.586024
0.58788
0.589755
0.591652
0.593577
0.595537
0.597541
0.599602
0.601738
0.603974
0.606347
0.608911
0.611749
0.614985
0.618789
0.623374
0.628941
0.635575
0.643082
0.6509
0.658311
0.665244
0.672039
0.679231
0.687484
0.697613
0.710545
0.726948
0.74614
0.761237
0.76297
0.765401
0.767492
0.769188
0.769714
0.768139
0.762538
0.757915
0.754695
0.751351
0.746417
0.738959
0.729836
0.71977
0.709571
0.700188
0.692531
0.688427
0.695312
0.732604
0.784976
0.210351
0.213752
0.219216
0.226631
0.235539
0.2454
0.25576
0.266296
0.276792
0.287108
0.297154
0.306872
0.316226
0.325196
0.333772
0.341952
0.349739
0.357143
0.364174
0.370849
0.377181
0.38319
0.388893
0.394311
0.399465
0.404377
0.409066
0.413552
0.417852
0.42198
0.425952
0.429779
0.433472
0.437044
0.440502
0.443857
0.447117
0.45029
0.453384
0.456406
0.459365
0.462268
0.465121
0.467931
0.470703
0.473443
0.476154
0.478841
0.481506
0.484153
0.486781
0.489393
0.491987
0.494562
0.497119
0.499653
0.502164
0.504648
0.507104
0.509528
0.511919
0.514274
0.516593
0.518875
0.521118
0.523324
0.525493
0.527625
0.529723
0.531789
0.533824
0.53583
0.537808
0.539762
0.541692
0.543601
0.545491
0.547362
0.549218
0.55106
0.55289
0.554708
0.556518
0.558322
0.56012
0.561915
0.563708
0.565499
0.567291
0.569084
0.570881
0.572682
0.574488
0.576302
0.578124
0.579957
0.581803
0.583665
0.585543
0.587442
0.589366
0.59132
0.59331
0.595345
0.597435
0.599596
0.601848
0.604219
0.606753
0.609515
0.612604
0.616174
0.620453
0.625757
0.632458
0.640887
0.651115
0.66265
0.674195
0.68391
0.692161
0.699786
0.707633
0.716552
0.727445
0.741152
0.757835
0.775746
0.780511
0.794451
0.798773
0.799585
0.798907
0.796969
0.793356
0.77142
0.771075
0.77172
0.771803
0.769705
0.762894
0.753037
0.741098
0.727771
0.715087
0.70461
0.698799
0.706762
0.746618
0.790194
0.2207
0.224661
0.230442
0.237753
0.246193
0.255373
0.264978
0.274769
0.284574
0.294271
0.303773
0.313019
0.321964
0.330582
0.338853
0.346769
0.354327
0.36153
0.368385
0.374902
0.381093
0.386972
0.392556
0.397863
0.402914
0.407727
0.412323
0.416718
0.420928
0.424968
0.428853
0.432595
0.436204
0.439693
0.443069
0.446342
0.449519
0.45261
0.455621
0.458562
0.46144
0.464263
0.467039
0.469775
0.472476
0.475149
0.477798
0.480427
0.483041
0.485641
0.48823
0.490807
0.493373
0.495926
0.498464
0.500985
0.503487
0.505965
0.508418
0.51084
0.51323
0.515586
0.517906
0.520187
0.52243
0.524633
0.526798
0.528926
0.531019
0.533078
0.535105
0.537103
0.539074
0.541019
0.542941
0.544842
0.546722
0.548586
0.550433
0.552267
0.554089
0.555901
0.557705
0.559504
0.561299
0.563093
0.564886
0.56668
0.568478
0.57028
0.572089
0.573903
0.575727
0.577563
0.579412
0.581278
0.583163
0.585069
0.587001
0.588963
0.590961
0.593002
0.595096
0.597253
0.599492
0.601832
0.604306
0.60696
0.609864
0.613125
0.616913
0.621492
0.627243
0.634678
0.644362
0.656735
0.671776
0.688539
0.704622
0.715558
0.723832
0.731117
0.738489
0.746749
0.756492
0.767877
0.780084
0.791185
0.798653
0.8
0.8
0.8
0.799998
0.799864
0.79979
0.79897
0.798524
0.798253
0.796789
0.793597
0.770472
0.765543
0.756606
0.742206
0.727474
0.715305
0.709186
0.720337
0.761732
0.794312
0.232744
0.236747
0.242329
0.249188
0.256998
0.265463
0.274338
0.283433
0.292598
0.301721
0.310715
0.319516
0.328074
0.336354
0.344332
0.351992
0.359328
0.366335
0.373016
0.379377
0.385427
0.391177
0.396642
0.401837
0.406781
0.411492
0.415987
0.420281
0.424392
0.428333
0.43212
0.435765
0.43928
0.442675
0.445958
0.449137
0.452221
0.455217
0.458133
0.460978
0.463761
0.466492
0.469177
0.471824
0.474442
0.477035
0.47961
0.482171
0.484724
0.48727
0.489811
0.492349
0.494882
0.497409
0.499929
0.502436
0.504929
0.507402
0.509852
0.512275
0.514667
0.517026
0.519348
0.521631
0.523874
0.526076
0.528238
0.53036
0.532446
0.534497
0.536515
0.538504
0.540465
0.5424
0.544312
0.546202
0.548073
0.549926
0.551763
0.553586
0.555398
0.557201
0.558997
0.560788
0.562578
0.564368
0.56616
0.567956
0.569758
0.571568
0.573388
0.575216
0.577059
0.578917
0.580795
0.582695
0.584621
0.586576
0.588565
0.590595
0.592674
0.59481
0.597018
0.599313
0.601719
0.604266
0.607003
0.609999
0.613364
0.617272
0.621994
0.627944
0.635706
0.646005
0.659563
0.676799
0.697392
0.719784
0.740523
0.749705
0.756066
0.761666
0.767333
0.773412
0.779904
0.786465
0.792449
0.797261
0.799803
0.799996
0.8
0.8
0.8
0.8
0.799999
0.799996
0.799994
0.799993
0.799871
0.799758
0.795152
0.787501
0.760662
0.748506
0.735407
0.724156
0.720212
0.7369
0.776106
0.797094
0.245166
0.248975
0.254172
0.260494
0.267672
0.275471
0.283689
0.292162
0.300756
0.309364
0.3179
0.326295
0.334497
0.342466
0.350171
0.357592
0.364718
0.37154
0.378057
0.384271
0.390187
0.395815
0.401165
0.406253
0.411092
0.415698
0.420086
0.424271
0.428272
0.432103
0.435781
0.439319
0.442728
0.446019
0.449198
0.452273
0.455251
0.458139
0.460946
0.463681
0.466354
0.468976
0.471554
0.474098
0.476616
0.479115
0.481603
0.484084
0.486563
0.489045
0.491532
0.494023
0.496519
0.499018
0.501516
0.504009
0.506493
0.508963
0.511414
0.51384
0.516237
0.518602
0.52093
0.523217
0.525463
0.527665
0.529824
0.531941
0.534019
0.53606
0.538068
0.540045
0.541994
0.543918
0.545818
0.547697
0.549555
0.551396
0.553221
0.555032
0.55683
0.55862
0.560405
0.562186
0.563968
0.565752
0.567541
0.569336
0.571142
0.572959
0.574789
0.576634
0.578494
0.580375
0.582281
0.584217
0.586186
0.588192
0.590244
0.592348
0.594514
0.596756
0.599091
0.601541
0.604137
0.606926
0.609975
0.613392
0.617343
0.622093
0.628054
0.635832
0.646231
0.660148
0.678284
0.700658
0.726087
0.751867
0.774122
0.77791
0.781127
0.784153
0.787171
0.790128
0.792896
0.795355
0.797418
0.799199
0.799968
0.8
0.8
0.8
0.8
0.8
0.8
0.8
0.8
0.8
0.799999
0.799999
0.799966
0.796516
0.76365
0.752916
0.741696
0.73286
0.733607
0.756107
0.787327
0.798682
0.257279
0.260829
0.265622
0.271436
0.278053
0.285274
0.292928
0.300868
0.30897
0.317131
0.325266
0.333305
0.341191
0.348881
0.356341
0.363548
0.370485
0.37714
0.38351
0.389593
0.395391
0.40091
0.406159
0.411148
0.415888
0.420388
0.424665
0.428733
0.432613
0.436321
0.439878
0.443296
0.446589
0.449765
0.45283
0.45579
0.45865
0.461417
0.464099
0.466708
0.469254
0.471748
0.474201
0.476623
0.479024
0.481411
0.483794
0.486179
0.488572
0.490978
0.493399
0.495837
0.49829
0.500756
0.50323
0.505709
0.508186
0.510655
0.51311
0.515544
0.517952
0.520328
0.522666
0.524963
0.527215
0.529419
0.531576
0.533687
0.535756
0.537785
0.53978
0.541744
0.54368
0.545591
0.547478
0.549344
0.55119
0.553017
0.554826
0.556621
0.558404
0.560178
0.561947
0.563715
0.565485
0.56726
0.569043
0.570837
0.572644
0.574466
0.576306
0.578166
0.580043
0.581948
0.583886
0.585859
0.587874
0.589937
0.592055
0.594239
0.596502
0.598861
0.601337
0.603962
0.606778
0.609852
0.613281
0.617223
0.621926
0.627777
0.635369
0.645524
0.659244
0.677447
0.70041
0.726982
0.753951
0.776575
0.791399
0.798014
0.799702
0.799975
0.799998
0.799982
0.799927
0.799897
0.799719
0.799956
0.799999
0.8
0.8
0.8
0.8
0.8
0.8
0.8
0.8
0.8
0.8
0.8
0.8
0.779493
0.766372
0.757696
0.748451
0.743614
0.750624
0.774577
0.79424
0.799458
0.268787
0.272086
0.27652
0.281904
0.288054
0.2948
0.30199
0.309491
0.317186
0.324975
0.332773
0.34051
0.348127
0.355579
0.362829
0.369852
0.376627
0.383143
0.38939
0.395366
0.401071
0.406506
0.411676
0.416583
0.421233
0.425632
0.429795
0.433737
0.437482
0.441053
0.444473
0.447759
0.450924
0.453975
0.456916
0.45975
0.46248
0.46511
0.467651
0.470114
0.47251
0.474855
0.47716
0.479437
0.481698
0.483952
0.486209
0.488478
0.490767
0.493081
0.495424
0.497798
0.500201
0.50263
0.505079
0.507544
0.510016
0.512488
0.514952
0.5174
0.519825
0.522219
0.524576
0.526888
0.529157
0.531378
0.533543
0.53565
0.537709
0.539726
0.541707
0.543657
0.54558
0.547479
0.549354
0.551207
0.553038
0.554849
0.556641
0.558416
0.560178
0.561931
0.563679
0.565428
0.56718
0.568941
0.570713
0.5725
0.574304
0.576129
0.577977
0.579849
0.581748
0.583675
0.585642
0.587653
0.589715
0.591835
0.594025
0.596296
0.598666
0.601155
0.603792
0.606618
0.609694
0.613112
0.617013
0.621624
0.627301
0.634595
0.644306
0.65748
0.675219
0.698138
0.725384
0.753518
0.776827
0.791199
0.797684
0.79981
0.799996
0.8
0.8
0.8
0.799999
0.799999
0.8
0.8
0.8
0.8
0.8
0.8
0.8
0.8
0.8
0.8
0.8
0.8
0.8
0.8
0.799929
0.784239
0.771551
0.764317
0.757921
0.757749
0.769245
0.78786
0.79767
0.799793
0.279581
0.282665
0.286806
0.291849
0.297633
0.304009
0.310838
0.317996
0.325372
0.332868
0.340399
0.347894
0.355295
0.362554
0.369635
0.376511
0.38316
0.38957
0.395731
0.401637
0.407286
0.412674
0.417797
0.42265
0.42723
0.431539
0.435588
0.439395
0.442988
0.446401
0.449663
0.452799
0.455822
0.458738
0.461547
0.464245
0.466832
0.46931
0.471688
0.47398
0.4762
0.478366
0.480494
0.482597
0.484689
0.486781
0.488885
0.491013
0.493174
0.495376
0.497624
0.499921
0.502264
0.50465
0.507072
0.509523
0.511993
0.514473
0.516953
0.519423
0.521875
0.524299
0.526684
0.529042
0.531355
0.533608
0.535792
0.537905
0.539951
0.541951
0.543912
0.545843
0.547748
0.549631
0.551491
0.553329
0.555144
0.556936
0.558707
0.560459
0.562195
0.563921
0.565642
0.567364
0.569093
0.570834
0.572591
0.574367
0.576167
0.577992
0.579844
0.581727
0.583645
0.585593
0.587588
0.589638
0.591751
0.593935
0.596203
0.59857
0.601058
0.603694
0.606516
0.60958
0.61297
0.616814
0.621316
0.626795
0.633749
0.642928
0.655365
0.672283
0.694643
0.722111
0.751456
0.776169
0.791067
0.797394
0.799364
0.799981
0.8
0.8
0.8
0.8
0.8
0.8
0.8
0.8
0.8
0.8
0.8
0.8
0.8
0.8
0.8
0.8
0.8
0.8
0.8
0.8
0.799774
0.789125
0.77827
0.772875
0.769772
0.77324
0.78437
0.795006
0.799127
0.799925
0.289633
0.292545
0.296466
0.301257
0.306776
0.312885
0.319457
0.326372
0.333519
0.340804
0.348141
0.355459
0.3627
0.369818
0.376777
0.38355
0.390118
0.396468
0.40259
0.40848
0.414127
0.419521
0.424648
0.429492
0.43404
0.438284
0.442227
0.445888
0.449304
0.452525
0.455598
0.458558
0.461421
0.464192
0.466861
0.469417
0.471848
0.474154
0.476344
0.478431
0.480438
0.482387
0.484298
0.486188
0.488073
0.489965
0.491879
0.493829
0.495829
0.497891
0.500021
0.502223
0.504494
0.50683
0.509221
0.511659
0.514131
0.516625
0.51913
0.521634
0.524127
0.526595
0.529052
0.531481
0.533854
0.536157
0.538373
0.540496
0.542526
0.544503
0.546439
0.548346
0.550232
0.552099
0.553946
0.55577
0.55757
0.559344
0.561092
0.562816
0.56452
0.566211
0.567896
0.569583
0.571281
0.572994
0.57473
0.576492
0.578283
0.580106
0.581962
0.583856
0.585791
0.587769
0.589795
0.591885
0.59405
0.596301
0.598655
0.60113
0.603754
0.606562
0.609605
0.612961
0.616744
0.621137
0.626423
0.633048
0.641692
0.653337
0.669245
0.690655
0.717821
0.748092
0.774542
0.790662
0.797379
0.799415
0.799792
0.799998
0.8
0.8
0.8
0.8
0.8
0.8
0.8
0.8
0.8
0.8
0.8
0.8
0.8
0.8
0.8
0.8
0.8
0.8
0.8
0.8
0.799802
0.793013
0.78505
0.781878
0.781503
0.785942
0.793228
0.798107
0.799686
0.799974
0.298949
0.301736
0.305506
0.310133
0.315485
0.321434
0.327853
0.334625
0.34164
0.348799
0.356018
0.363228
0.370371
0.377404
0.384293
0.391017
0.397559
0.40391
0.410062
0.416006
0.421728
0.427206
0.432419
0.437337
0.442069
0.446458
0.450324
0.453826
0.457019
0.459983
0.4628
0.465527
0.468194
0.470797
0.473313
0.475711
0.477963
0.480059
0.482006
0.483824
0.485543
0.487197
0.488817
0.490423
0.492032
0.493658
0.495317
0.49703
0.498815
0.50069
0.502664
0.504742
0.506922
0.509195
0.51155
0.513974
0.516451
0.518967
0.521509
0.524063
0.526615
0.529161
0.531725
0.534262
0.536749
0.539154
0.541442
0.54359
0.5456
0.547542
0.549443
0.55132
0.553184
0.555037
0.556875
0.558691
0.56048
0.562236
0.56396
0.56565
0.567314
0.568957
0.57059
0.572226
0.573876
0.575549
0.577252
0.578991
0.580767
0.582583
0.58444
0.586342
0.588293
0.590299
0.592352
0.594484
0.596708
0.599038
0.601493
0.604098
0.606886
0.609906
0.613227
0.616956
0.621255
0.626377
0.632718
0.640888
0.651792
0.66667
0.68693
0.713356
0.744074
0.772167
0.789782
0.797163
0.799399
0.799913
0.799996
0.8
0.8
0.8
0.8
0.8
0.8
0.8
0.8
0.8
0.8
0.8
0.8
0.8
0.8
0.8
0.8
0.8
0.8
0.8
0.8
0.8
0.7998
0.795675
0.790711
0.789406
0.790318
0.793653
0.797343
0.799312
0.79989
0.799991
0.30755
0.310256
0.313943
0.318492
0.323778
0.329674
0.336052
0.342788
0.34977
0.356895
0.364078
0.371252
0.378362
0.385371
0.392254
0.398993
0.405581
0.412013
0.418283
0.424379
0.430284
0.435974
0.441628
0.44745
0.453135
0.458475
0.463103
0.466338
0.469065
0.471445
0.473675
0.47588
0.478122
0.480396
0.482644
0.484783
0.486738
0.488476
0.489998
0.491335
0.492541
0.493679
0.494801
0.495935
0.497096
0.498296
0.499555
0.500896
0.502349
0.503939
0.50568
0.507577
0.509624
0.511808
0.514111
0.516515
0.518999
0.521545
0.524137
0.526759
0.529396
0.532094
0.534815
0.537541
0.540246
0.542877
0.545349
0.547571
0.549549
0.551432
0.553268
0.555091
0.556921
0.558759
0.560595
0.562411
0.564196
0.565939
0.567636
0.569285
0.570891
0.572462
0.574015
0.575568
0.577141
0.578748
0.580399
0.582098
0.583848
0.585649
0.587501
0.589407
0.591371
0.593401
0.5955
0.597675
0.599962
0.602378
0.604951
0.607711
0.610704
0.613996
0.617682
0.621911
0.626913
0.633042
0.640847
0.651149
0.665125
0.684255
0.709723
0.740434
0.76977
0.788758
0.796825
0.799295
0.799882
0.799988
0.8
0.8
0.8
0.8
0.8
0.8
0.8
0.8
0.8
0.8
0.8
0.8
0.8
0.8
0.8
0.8
0.8
0.8
0.8
0.8
0.8
0.8
0.799186
0.797315
0.794772
0.794515
0.795526
0.797408
0.799015
0.799757
0.799962
0.799997
0.315461
0.318129
0.321799
0.32636
0.331686
0.337645
0.344102
0.350922
0.35798
0.365169
0.372402
0.379616
0.386764
0.393819
0.400766
0.407601
0.414326
0.420941
0.427446
0.433835
0.440097
0.446574
0.453632
0.461052
0.468883
0.476597
0.483619
0.487211
0.489135
0.490317
0.491321
0.492455
0.493882
0.495611
0.497508
0.499342
0.500888
0.502056
0.502835
0.503272
0.503478
0.50361
0.50378
0.504032
0.504374
0.504808
0.505347
0.506028
0.506896
0.507992
0.509336
0.51093
0.512757
0.514794
0.517011
0.519376
0.521861
0.524441
0.527097
0.529811
0.532568
0.53546
0.538442
0.541516
0.544672
0.547842
0.550809
0.553234
0.555162
0.556925
0.55863
0.560348
0.562117
0.563941
0.565793
0.567634
0.569435
0.571178
0.572852
0.574448
0.575966
0.577415
0.578822
0.580222
0.581651
0.583135
0.584687
0.586314
0.588013
0.589781
0.591614
0.593513
0.595483
0.59753
0.599668
0.601881
0.604234
0.606752
0.609467
0.612421
0.615676
0.619324
0.623504
0.628431
0.634435
0.642019
0.651933
0.665277
0.683527
0.708122
0.738562
0.768485
0.788178
0.796601
0.79921
0.799852
0.799979
0.799998
0.8
0.8
0.8
0.8
0.8
0.8
0.8
0.8
0.8
0.8
0.8
0.8
0.8
0.8
0.8
0.8
0.8
0.8
0.8
0.8
0.8
0.8
0.799622
0.798655
0.797401
0.797447
0.798112
0.799007
0.799647
0.799916
0.799987
0.799999
0.322729
0.325416
0.329148
0.33381
0.339268
0.345375
0.351978
0.359084
0.366384
0.373744
0.381119
0.388453
0.395716
0.402896
0.409995
0.417024
0.423996
0.430927
0.437834
0.444733
0.451875
0.460366
0.470073
0.48098
0.493314
0.505023
0.517169
0.521429
0.522031
0.520653
0.519132
0.518147
0.518118
0.519134
0.521035
0.524084
0.525277
0.525644
0.525162
0.523892
0.522062
0.520144
0.518436
0.517016
0.515843
0.514863
0.514068
0.513512
0.513284
0.513464
0.514084
0.515134
0.516575
0.518354
0.520413
0.522699
0.525168
0.527782
0.530515
0.53335
0.536341
0.539511
0.542896
0.546554
0.550562
0.554902
0.559101
0.561903
0.563729
0.5652
0.566596
0.568071
0.569715
0.571542
0.573482
0.575425
0.57731
0.579105
0.580787
0.582331
0.583721
0.584958
0.586082
0.587182
0.588328
0.589572
0.59094
0.592432
0.594039
0.595746
0.59754
0.599415
0.601373
0.603424
0.605585
0.607876
0.610263
0.612872
0.615744
0.618934
0.62253
0.626668
0.631559
0.637531
0.645074
0.654905
0.668054
0.685962
0.710168
0.740396
0.769913
0.788836
0.79676
0.799217
0.799841
0.799974
0.799997
0.8
0.8
0.8
0.8
0.8
0.8
0.8
0.8
0.8
0.8
0.8
0.8
0.8
0.8
0.8
0.8
0.8
0.8
0.8
0.8
0.8
0.8
0.799999
0.799834
0.799389
0.798815
0.798902
0.799252
0.799635
0.799877
0.799971
0.799996
0.8
0.329395
0.332174
0.336067
0.340955
0.346689
0.353094
0.359998
0.367334
0.374853
0.382419
0.390422
0.397966
0.405428
0.412822
0.420174
0.427513
0.434877
0.442311
0.449875
0.457643
0.467451
0.479663
0.49469
0.510406
0.528312
0.54122
0.556609
0.559755
0.559501
0.554741
0.55032
0.547026
0.545644
0.54661
0.551765
0.559226
0.562284
0.562327
0.560573
0.556913
0.55156
0.546036
0.541216
0.537185
0.533691
0.530493
0.527498
0.524795
0.522612
0.521149
0.520484
0.520588
0.521368
0.522711
0.524505
0.526653
0.529077
0.531721
0.534547
0.537539
0.540788
0.544338
0.548292
0.552819
0.55824
0.564684
0.5713
0.574323
0.575912
0.576686
0.577449
0.578445
0.579883
0.581816
0.584458
0.586963
0.589071
0.591029
0.592804
0.594343
0.595575
0.596453
0.597028
0.597544
0.598151
0.598959
0.60001
0.601295
0.602773
0.604403
0.606149
0.607989
0.609919
0.611953
0.614119
0.61645
0.618968
0.621675
0.624733
0.628234
0.63232
0.637213
0.643264
0.651005
0.661204
0.674901
0.693453
0.718394
0.748671
0.77575
0.791355
0.797484
0.799368
0.799862
0.799974
0.799996
0.8
0.8
0.8
0.8
0.8
0.8
0.8
0.8
0.8
0.8
0.8
0.8
0.8
0.8
0.8
0.8
0.8
0.8
0.8
0.8
0.8
0.8
0.8
0.799999
0.799927
0.799735
0.799491
0.799554
0.799717
0.79987
0.799958
0.79999
0.799999
0.8
0.335492
0.338439
0.342609
0.347875
0.354062
0.360953
0.368334
0.376062
0.383913
0.391764
0.399939
0.407993
0.416181
0.423908
0.431629
0.439426
0.447383
0.455609
0.464252
0.474603
0.488715
0.508173
0.530594
0.547756
0.567311
0.57331
0.578127
0.608486
0.619216
0.570041
0.567071
0.564574
0.563796
0.56614
0.575159
0.587189
0.591412
0.593291
0.592761
0.589439
0.581883
0.573509
0.566546
0.560931
0.555918
0.550898
0.5456
0.540171
0.535203
0.53129
0.528697
0.527398
0.527217
0.52794
0.529366
0.531326
0.533693
0.536375
0.539319
0.54251
0.546059
0.550048
0.554658
0.560224
0.567541
0.576608
0.585829
0.588491
0.589739
0.58926
0.589195
0.58957
0.590845
0.593233
0.599169
0.602975
0.60578
0.60807
0.610108
0.611784
0.612909
0.613239
0.612703
0.612122
0.611748
0.611824
0.612416
0.613461
0.614846
0.616464
0.61823
0.620092
0.622032
0.624072
0.626271
0.628692
0.631398
0.634389
0.637795
0.641849
0.646811
0.653104
0.661398
0.672661
0.688139
0.709394
0.736938
0.765477
0.785537
0.795066
0.798531
0.799607
0.799905
0.79998
0.799996
0.799999
0.8
0.8
0.8
0.8
0.8
0.8
0.8
0.8
0.8
0.8
0.8
0.8
0.8
0.8
0.8
0.8
0.8
0.8
0.8
0.8
0.8
0.8
0.8
0.799999
0.799967
0.799888
0.799791
0.799827
0.799896
0.799954
0.799986
0.799997
0.8
0.8
0.341053
0.344258
0.348845
0.354685
0.361563
0.36919
0.377267
0.385569
0.393893
0.40217
0.410604
0.418898
0.427486
0.436569
0.444825
0.453295
0.462164
0.471667
0.482156
0.498282
0.519506
0.548459
0.574354
0.584284
0.591476
0.721505
0.795639
0.797249
0.791961
0.778226
0.627198
0.577696
0.57676
0.580862
0.596038
0.603101
0.66373
0.768929
0.754776
0.643436
0.592143
0.58655
0.582207
0.578795
0.575326
0.570939
0.56504
0.557571
0.549639
0.542861
0.537982
0.535039
0.53376
0.533802
0.534848
0.536645
0.538996
0.541765
0.544873
0.548307
0.552154
0.556535
0.561707
0.568212
0.577611
0.588208
0.596071
0.620909
0.646741
0.603679
0.602359
0.60162
0.602628
0.607121
0.62134
0.627629
0.630612
0.633448
0.636434
0.638584
0.639893
0.639427
0.635976
0.632889
0.630402
0.629034
0.628875
0.629649
0.63104
0.6328
0.634754
0.636782
0.63883
0.640938
0.643251
0.645899
0.64899
0.652658
0.656953
0.662248
0.669222
0.67882
0.692574
0.712437
0.738573
0.765337
0.784371
0.794024
0.797936
0.799339
0.799805
0.799947
0.799987
0.799997
0.8
0.8
0.8
0.8
0.8
0.8
0.8
0.8
0.8
0.8
0.8
0.8
0.8
0.8
0.8
0.8
0.8
0.8
0.8
0.8
0.8
0.8
0.8
0.8
0.8
0.799997
0.799985
0.799955
0.799918
0.799935
0.799963
0.799984
0.799995
0.799999
0.8
0.8
0.346119
0.349683
0.354866
0.361554
0.369474
0.378195
0.387256
0.39635
0.40531
0.414128
0.42293
0.431614
0.440524
0.450039
0.460443
0.469963
0.480317
0.492055
0.507776
0.536064
0.56268
0.595117
0.604878
0.709809
0.794967
0.799304
0.799964
0.799983
0.799954
0.799844
0.796651
0.661711
0.595217
0.600325
0.619021
0.766558
0.799616
0.799906
0.799684
0.795914
0.643152
0.595646
0.593703
0.593004
0.591994
0.58962
0.584666
0.575823
0.564174
0.554156
0.546995
0.54254
0.540312
0.53982
0.540637
0.542418
0.544893
0.547863
0.551206
0.554909
0.558985
0.563574
0.56898
0.576051
0.587558
0.597755
0.707885
0.798332
0.798565
0.79152
0.69033
0.614462
0.614395
0.62136
0.639886
0.741343
0.798593
0.789317
0.799623
0.799567
0.79589
0.730504
0.64797
0.646299
0.644172
0.643117
0.643627
0.645223
0.647471
0.650073
0.652815
0.655526
0.658093
0.660571
0.663392
0.666839
0.671133
0.676585
0.68374
0.693378
0.706734
0.72525
0.748731
0.771494
0.78703
0.794816
0.798035
0.799283
0.799749
0.799917
0.799975
0.799993
0.799998
0.8
0.8
0.8
0.8
0.8
0.8
0.8
0.8
0.8
0.8
0.8
0.8
0.8
0.8
0.8
0.8
0.8
0.8
0.8
0.8
0.8
0.8
0.8
0.8
0.8
0.8
0.799999
0.799994
0.799983
0.79997
0.799977
0.799987
0.799995
0.799998
0.8
0.8
0.8
0.350732
0.354764
0.360779
0.36873
0.378256
0.388642
0.399094
0.409245
0.419015
0.428475
0.437762
0.446959
0.456389
0.466397
0.47769
0.490856
0.504009
0.520423
0.554917
0.600631
0.618436
0.634045
0.78593
0.798907
0.799944
0.799995
0.8
0.8
0.8
0.799999
0.799972
0.788781
0.71128
0.624448
0.701731
0.794732
0.79996
0.8
0.799999
0.799975
0.794106
0.624783
0.690795
0.731834
0.71869
0.654108
0.614849
0.579847
0.569593
0.560543
0.553385
0.548588
0.546068
0.545479
0.546414
0.548489
0.551363
0.554754
0.55843
0.562395
0.566573
0.571061
0.576145
0.583096
0.595644
0.748906
0.799129
0.79999
0.799995
0.799926
0.798054
0.66565
0.623296
0.640639
0.668922
0.76663
0.799795
0.799944
0.799998
0.799998
0.799988
0.799764
0.798764
0.744421
0.653256
0.653645
0.65607
0.659388
0.66321
0.667323
0.671563
0.675721
0.679505
0.682791
0.68712
0.693054
0.700998
0.711532
0.725328
0.742513
0.761514
0.778664
0.789994
0.795837
0.7984
0.799411
0.799773
0.799914
0.799969
0.799989
0.799997
0.799999
0.8
0.8
0.8
0.8
0.8
0.8
0.8
0.8
0.8
0.8
0.8
0.8
0.8
0.8
0.8
0.8
0.8
0.8
0.8
0.8
0.8
0.8
0.8
0.8
0.8
0.8
0.8
0.8
0.799998
0.799994
0.799989
0.799992
0.799996
0.799998
0.799999
0.8
0.8
0.8
0.35493
0.359529
0.366679
0.376554
0.388704
0.401807
0.414283
0.425848
0.436596
0.446765
0.456631
0.466467
0.476661
0.487655
0.500167
0.516061
0.538545
0.568524
0.632211
0.664908
0.775813
0.795172
0.799799
0.79999
0.8
0.8
0.8
0.8
0.8
0.8
0.8
0.799878
0.778305
0.643681
0.744898
0.798347
0.799987
0.8
0.8
0.8
0.731749
0.657347
0.773238
0.798619
0.797283
0.721515
0.645085
0.583095
0.572845
0.56447
0.557724
0.553145
0.550855
0.550647
0.552178
0.555054
0.558834
0.563111
0.567245
0.571442
0.575764
0.580164
0.584964
0.591375
0.603569
0.77059
0.79963
0.799997
0.8
0.799999
0.799946
0.701951
0.654541
0.740819
0.756752
0.790182
0.799939
0.8
0.8
0.8
0.8
0.8
0.799998
0.796738
0.671706
0.674193
0.678938
0.684864
0.691603
0.698992
0.706906
0.71477
0.720842
0.722202
0.727465
0.736531
0.748418
0.761897
0.77502
0.785683
0.792848
0.796822
0.798678
0.799481
0.79981
0.799937
0.799974
0.79999
0.799996
0.799998
0.799999
0.8
0.8
0.8
0.8
0.8
0.8
0.8
0.8
0.8
0.8
0.8
0.8
0.8
0.8
0.8
0.8
0.8
0.8
0.8
0.8
0.8
0.8
0.8
0.8
0.8
0.8
0.8
0.8
0.8
0.799999
0.799998
0.799996
0.799997
0.799998
0.799999
0.8
0.8
0.8
0.8
0.358736
0.363933
0.372533
0.385398
0.402276
0.420577
0.436358
0.44993
0.461683
0.472439
0.482898
0.493564
0.50504
0.518105
0.533984
0.555598
0.59157
0.670639
0.757407
0.796387
0.799748
0.79992
0.799998
0.8
0.8
0.8
0.8
0.8
0.8
0.8
0.8