/*--------------------------------*- C++ -*----------------------------------*\
| =========                 |                                                 |
| \\      /  F ield         | OpenFOAM: The Open Source CFD Toolbox           |
|  \\    /   O peration     | Version:  2.1.0                                 |
|   \\  /    A nd           | Web:      www.OpenFOAM.org                      |
|    \\/     M anipulation  |                                                 |
\*---------------------------------------------------------------------------*/
FoamFile
{
    version     2.0;
    format      ascii;
    class       volScalarField;
    location    "32120";
    object      sw;
}
// * * * * * * * * * * * * * * * * * * * * * * * * * * * * * * * * * * * * * //

dimensions      [0 0 0 0 0 0 0];

internalField   nonuniform List<scalar> 
15000
(
0.8
0.799999
0.799974
0.799419
0.796365
0.789031
0.778086
0.765342
0.752153
0.73921
0.726805
0.715042
0.70394
0.693485
0.683646
0.674389
0.665679
0.65748
0.649756
0.642476
0.635607
0.629118
0.622981
0.617167
0.61165
0.606404
0.601406
0.596631
0.592058
0.587668
0.583444
0.579371
0.575436
0.571627
0.567934
0.564346
0.560856
0.557454
0.554133
0.550885
0.547704
0.544584
0.54152
0.538506
0.53554
0.532616
0.529732
0.526886
0.524074
0.521295
0.518549
0.515835
0.513152
0.510503
0.507886
0.505303
0.502754
0.500241
0.497764
0.495325
0.492923
0.49056
0.488235
0.485948
0.483698
0.481486
0.479309
0.477166
0.475057
0.47298
0.470933
0.468914
0.466921
0.464954
0.46301
0.461087
0.459185
0.457301
0.455435
0.453584
0.451749
0.449926
0.448116
0.446317
0.444529
0.442751
0.440981
0.43922
0.437467
0.435723
0.433986
0.432257
0.430535
0.428821
0.427115
0.425417
0.42373
0.422052
0.420385
0.41873
0.417088
0.41546
0.413848
0.412253
0.410676
0.409119
0.407583
0.406069
0.404579
0.403113
0.40167
0.400252
0.398855
0.39748
0.396124
0.394783
0.393457
0.392144
0.390841
0.389543
0.388239
0.38691
0.385525
0.384041
0.382409
0.380583
0.378553
0.376407
0.374368
0.372699
0.371435
0.370518
0.369823
0.369115
0.368387
0.36763
0.366832
0.365985
0.36508
0.364102
0.363029
0.361823
0.360429
0.358759
0.356665
0.353848
0.349384
0.339047
0.306904
0.238531
0.799999
0.799995
0.799867
0.798623
0.79416
0.785597
0.774139
0.761411
0.748468
0.735835
0.723732
0.71224
0.701374
0.69112
0.681451
0.672339
0.663752
0.655658
0.648024
0.640822
0.634021
0.627591
0.621506
0.615739
0.610264
0.605056
0.600092
0.595349
0.590804
0.586439
0.582239
0.578189
0.574276
0.570489
0.566818
0.563252
0.559784
0.556403
0.553103
0.549876
0.546715
0.543615
0.540571
0.537577
0.53463
0.531725
0.528859
0.526029
0.523232
0.520468
0.517734
0.515032
0.51236
0.50972
0.507112
0.504535
0.501992
0.499483
0.49701
0.494574
0.492174
0.489813
0.487489
0.485202
0.482953
0.48074
0.478563
0.47642
0.474311
0.472233
0.470185
0.468165
0.466172
0.464203
0.462257
0.460333
0.458429
0.456543
0.454675
0.452822
0.450983
0.449157
0.447344
0.445541
0.443748
0.441963
0.440187
0.438418
0.436656
0.434901
0.433153
0.431409
0.429671
0.427938
0.426211
0.42449
0.422775
0.421066
0.419363
0.417667
0.415979
0.414299
0.412627
0.410964
0.409309
0.407663
0.406024
0.404392
0.402765
0.401139
0.39951
0.397872
0.396218
0.394536
0.392815
0.391041
0.389204
0.387301
0.385335
0.383308
0.381203
0.378972
0.376528
0.373747
0.370469
0.366538
0.361888
0.356759
0.351928
0.348414
0.34608
0.344643
0.343778
0.343194
0.342872
0.342759
0.342733
0.342745
0.342827
0.34304
0.343406
0.343873
0.344333
0.344622
0.344518
0.343652
0.340978
0.331784
0.299115
0.232865
0.799975
0.799871
0.799158
0.796321
0.789898
0.78015
0.768436
0.755971
0.743476
0.731311
0.719638
0.708519
0.69797
0.687983
0.678542
0.669621
0.661197
0.653243
0.645731
0.638633
0.631924
0.625576
0.619565
0.613864
0.608449
0.603296
0.598382
0.593684
0.589181
0.584857
0.580695
0.576682
0.572805
0.569054
0.565417
0.561886
0.558451
0.555104
0.551837
0.548643
0.545515
0.542447
0.539434
0.536471
0.533553
0.530675
0.527835
0.525028
0.522254
0.51951
0.516795
0.514109
0.511452
0.508824
0.506226
0.503658
0.501121
0.498618
0.496149
0.493715
0.491318
0.488958
0.486636
0.48435
0.482102
0.47989
0.477713
0.475572
0.473463
0.471386
0.469339
0.46732
0.465327
0.463359
0.461415
0.459491
0.457588
0.455703
0.453835
0.451981
0.450142
0.448315
0.446499
0.444694
0.442897
0.441108
0.439326
0.43755
0.43578
0.434015
0.432254
0.430496
0.428742
0.42699
0.425241
0.423494
0.421749
0.420007
0.418265
0.416526
0.414787
0.413049
0.41131
0.40957
0.407826
0.406077
0.404319
0.402547
0.400754
0.398932
0.397068
0.395144
0.393136
0.39101
0.388726
0.386242
0.383526
0.380581
0.37745
0.374188
0.370798
0.367197
0.363213
0.358592
0.353003
0.346085
0.33762
0.328003
0.319062
0.313773
0.310597
0.308732
0.307711
0.30748
0.308061
0.309345
0.31082
0.312331
0.314029
0.316144
0.318779
0.321809
0.325006
0.328067
0.330645
0.332275
0.331743
0.323702
0.290118
0.226932
0.799449
0.798675
0.796384
0.791335
0.783218
0.772845
0.761287
0.74933
0.737435
0.725847
0.714686
0.704008
0.693833
0.684162
0.674988
0.666295
0.658065
0.650278
0.642911
0.63594
0.629343
0.623096
0.617175
0.611556
0.606217
0.601133
0.596283
0.591644
0.587197
0.582926
0.578815
0.574852
0.571024
0.567321
0.563732
0.560247
0.556859
0.553558
0.550336
0.547187
0.544104
0.541079
0.538109
0.535186
0.532306
0.529465
0.526658
0.523884
0.521138
0.518421
0.515729
0.513064
0.510424
0.507811
0.505225
0.502667
0.500138
0.497641
0.495177
0.492746
0.490352
0.487994
0.485673
0.483388
0.481141
0.478931
0.476757
0.474617
0.472511
0.470437
0.468392
0.466376
0.464386
0.462421
0.460479
0.458558
0.456658
0.454775
0.452909
0.451057
0.449219
0.447393
0.445577
0.443771
0.441972
0.440179
0.438392
0.43661
0.434833
0.433058
0.431285
0.429513
0.427742
0.42597
0.424197
0.422424
0.420648
0.418868
0.417085
0.415296
0.413502
0.411699
0.409886
0.408058
0.406214
0.404346
0.402448
0.40051
0.398517
0.396451
0.394284
0.391974
0.389464
0.38667
0.383492
0.379825
0.37561
0.370894
0.365867
0.360769
0.35566
0.350392
0.344661
0.338025
0.329918
0.319683
0.306825
0.291801
0.278122
0.272952
0.269836
0.267745
0.266454
0.266449
0.268053
0.27142
0.27477
0.277793
0.281026
0.285125
0.290415
0.296569
0.303155
0.309641
0.315473
0.320027
0.32185
0.314721
0.279632
0.220882
0.796571
0.794412
0.790167
0.783413
0.77449
0.764152
0.753096
0.741813
0.730605
0.719648
0.709041
0.698838
0.689068
0.679742
0.670861
0.662419
0.654405
0.646804
0.639599
0.632771
0.626302
0.620169
0.614352
0.608829
0.603577
0.598575
0.5938
0.589232
0.584853
0.580648
0.576601
0.5727
0.568933
0.56529
0.561761
0.558335
0.555005
0.551762
0.548598
0.545506
0.542479
0.53951
0.536592
0.53372
0.530889
0.528093
0.52533
0.522595
0.519885
0.5172
0.514537
0.511897
0.509279
0.506683
0.504111
0.501564
0.499044
0.496553
0.494093
0.491666
0.489274
0.486917
0.484598
0.482315
0.48007
0.477862
0.47569
0.473554
0.471451
0.46938
0.46734
0.465327
0.463342
0.461382
0.459445
0.457529
0.455633
0.453755
0.451893
0.450045
0.44821
0.446387
0.444573
0.442767
0.440968
0.439173
0.437383
0.435596
0.433811
0.432026
0.430241
0.428455
0.426666
0.424874
0.423077
0.421275
0.419465
0.417646
0.415817
0.413976
0.41212
0.410245
0.408348
0.406423
0.404463
0.402459
0.400398
0.398262
0.396026
0.393653
0.391089
0.388251
0.385015
0.381211
0.376626
0.371059
0.364425
0.356918
0.3491
0.341689
0.334756
0.327961
0.320769
0.312516
0.302387
0.289455
0.273052
0.25386
0.238763
0.23703
0.234599
0.232508
0.230812
0.230286
0.231861
0.237462
0.242085
0.245305
0.248649
0.253583
0.261041
0.270164
0.28023
0.290429
0.299812
0.307469
0.311573
0.304688
0.267396
0.215024
0.789649
0.786248
0.780784
0.773369
0.764461
0.7546
0.74424
0.733704
0.723208
0.712892
0.702846
0.693128
0.683774
0.674804
0.666228
0.658048
0.650261
0.642857
0.635826
0.629151
0.622819
0.61681
0.611107
0.605689
0.600535
0.595623
0.590934
0.586448
0.582148
0.57802
0.574048
0.570221
0.566528
0.562956
0.559498
0.556143
0.552883
0.54971
0.546616
0.543594
0.540635
0.537732
0.534879
0.532069
0.529297
0.526557
0.523846
0.521159
0.518494
0.515847
0.513219
0.510607
0.508013
0.505438
0.502881
0.500347
0.497836
0.495352
0.492896
0.490472
0.488081
0.485726
0.483407
0.481125
0.478882
0.476676
0.474507
0.472375
0.470277
0.468211
0.466176
0.46417
0.462192
0.460238
0.458308
0.456399
0.454509
0.452638
0.450782
0.44894
0.44711
0.445292
0.443482
0.441678
0.43988
0.438085
0.436292
0.434501
0.432709
0.430916
0.429119
0.427318
0.425512
0.423698
0.421876
0.420043
0.418197
0.416335
0.414457
0.412558
0.410634
0.40868
0.40669
0.404655
0.402565
0.400404
0.398152
0.395781
0.393247
0.390485
0.387396
0.383826
0.379547
0.374243
0.367542
0.359113
0.348885
0.33735
0.325805
0.31609
0.307839
0.300214
0.292367
0.283448
0.272555
0.258848
0.242165
0.224254
0.219489
0.205549
0.201227
0.200415
0.201093
0.203031
0.206644
0.22858
0.228925
0.22828
0.228197
0.230295
0.237106
0.246963
0.258902
0.272229
0.284913
0.29539
0.301201
0.293238
0.253382
0.209806
0.7793
0.775339
0.769558
0.762247
0.753807
0.744627
0.735022
0.725231
0.715426
0.705729
0.696227
0.686981
0.678036
0.669418
0.661147
0.653231
0.645673
0.63847
0.631615
0.625098
0.618907
0.613028
0.607444
0.602137
0.597086
0.592273
0.587677
0.583282
0.579072
0.575032
0.571147
0.567405
0.563796
0.560307
0.556931
0.553658
0.550481
0.54739
0.544379
0.541438
0.53856
0.535737
0.532961
0.530225
0.527524
0.524851
0.522202
0.519573
0.516959
0.514359
0.51177
0.509193
0.506627
0.504074
0.501536
0.499015
0.496513
0.494035
0.491582
0.48916
0.48677
0.484414
0.482094
0.479813
0.47757
0.475367
0.473202
0.471074
0.468981
0.466922
0.464895
0.462897
0.460926
0.458981
0.457059
0.455158
0.453278
0.451414
0.449567
0.447733
0.445911
0.444099
0.442295
0.440496
0.438701
0.436907
0.435114
0.43332
0.431522
0.42972
0.427911
0.426097
0.424273
0.422437
0.420588
0.418722
0.416837
0.414931
0.412999
0.411037
0.409039
0.406998
0.404904
0.402747
0.400508
0.398168
0.395694
0.39304
0.390136
0.386875
0.383087
0.378508
0.372757
0.365322
0.355638
0.343265
0.328224
0.311461
0.295378
0.284442
0.276168
0.268883
0.261511
0.253251
0.243508
0.232123
0.219916
0.208815
0.201347
0.2
0.2
0.2
0.200002
0.200136
0.20021
0.20103
0.201476
0.201747
0.203211
0.206403
0.229528
0.234457
0.243394
0.257794
0.272526
0.284695
0.290814
0.279663
0.238268
0.205688
0.767256
0.763253
0.757671
0.750812
0.743002
0.734537
0.725662
0.716567
0.707402
0.698279
0.689285
0.680484
0.671926
0.663646
0.655668
0.648008
0.640672
0.633665
0.626984
0.620623
0.614573
0.608823
0.603358
0.598163
0.593219
0.588508
0.584013
0.579719
0.575608
0.571667
0.56788
0.564235
0.56072
0.557325
0.554042
0.550863
0.547779
0.544783
0.541867
0.539022
0.536239
0.533508
0.530823
0.528176
0.525558
0.522965
0.52039
0.517829
0.515276
0.51273
0.510189
0.507651
0.505118
0.502591
0.500071
0.497564
0.495071
0.492598
0.490148
0.487725
0.485333
0.482974
0.480652
0.478369
0.476126
0.473924
0.471762
0.46964
0.467554
0.465503
0.463485
0.461496
0.459535
0.4576
0.455688
0.453798
0.451927
0.450074
0.448237
0.446414
0.444602
0.442799
0.441003
0.439212
0.437422
0.435632
0.43384
0.432044
0.430242
0.428432
0.426612
0.424784
0.422941
0.421083
0.419205
0.417305
0.415379
0.413424
0.411435
0.409405
0.407326
0.40519
0.402982
0.400687
0.398281
0.395734
0.392997
0.390001
0.386636
0.382728
0.378006
0.372056
0.364294
0.353995
0.340437
0.323201
0.302608
0.280216
0.259477
0.250295
0.243934
0.238334
0.232667
0.226588
0.220096
0.213535
0.207551
0.202739
0.200197
0.200004
0.2
0.2
0.2
0.2
0.200001
0.200004
0.200006
0.200007
0.200129
0.200242
0.204848
0.212499
0.239338
0.251494
0.264593
0.275844
0.279788
0.2631
0.223894
0.202906
0.754834
0.751025
0.745828
0.739506
0.732328
0.724529
0.716311
0.707838
0.699244
0.690636
0.6821
0.673705
0.665503
0.657534
0.649829
0.642408
0.635282
0.62846
0.621943
0.615729
0.609813
0.604185
0.598835
0.593747
0.588908
0.584302
0.579914
0.575729
0.571728
0.567897
0.564219
0.560681
0.557272
0.553981
0.550802
0.547727
0.544749
0.541861
0.539054
0.536319
0.533646
0.531024
0.528446
0.525902
0.523384
0.520885
0.518397
0.515916
0.513437
0.510955
0.508468
0.505977
0.503481
0.500982
0.498484
0.495991
0.493507
0.491037
0.488586
0.48616
0.483763
0.481398
0.47907
0.476783
0.474537
0.472335
0.470176
0.468059
0.465981
0.46394
0.461932
0.459955
0.458006
0.456082
0.454182
0.452303
0.450445
0.448604
0.446779
0.444968
0.44317
0.44138
0.439595
0.437814
0.436032
0.434248
0.432459
0.430664
0.428858
0.427041
0.425211
0.423366
0.421506
0.419625
0.417719
0.415783
0.413814
0.411808
0.409756
0.407652
0.405486
0.403244
0.400909
0.398459
0.395863
0.393074
0.390025
0.386608
0.382657
0.377907
0.371946
0.364168
0.353769
0.339852
0.321716
0.299342
0.273913
0.248133
0.225878
0.22209
0.218873
0.215847
0.212829
0.209872
0.207104
0.204645
0.202582
0.200801
0.200032
0.2
0.2
0.2
0.2
0.2
0.2
0.2
0.2
0.2
0.200001
0.200001
0.200034
0.203484
0.23635
0.247084
0.258304
0.26714
0.266393
0.243893
0.212673
0.201318
0.742721
0.739171
0.734378
0.728564
0.721947
0.714726
0.707072
0.699132
0.69103
0.682869
0.674734
0.666695
0.658809
0.651119
0.643659
0.636452
0.629515
0.62286
0.61649
0.610407
0.604609
0.59909
0.593841
0.588852
0.584112
0.579612
0.575335
0.571267
0.567387
0.563679
0.560122
0.556704
0.553411
0.550235
0.54717
0.54421
0.54135
0.538583
0.535901
0.533292
0.530746
0.528252
0.525799
0.523377
0.520976
0.518589
0.516206
0.513821
0.511428
0.509022
0.506601
0.504163
0.50171
0.499244
0.49677
0.494291
0.491814
0.489345
0.48689
0.484456
0.482048
0.479672
0.477334
0.475037
0.472785
0.470581
0.468424
0.466313
0.464244
0.462215
0.46022
0.458256
0.45632
0.454409
0.452522
0.450656
0.44881
0.446983
0.445174
0.443379
0.441596
0.439822
0.438053
0.436285
0.434515
0.43274
0.430957
0.429163
0.427356
0.425534
0.423694
0.421834
0.419957
0.418052
0.416114
0.414141
0.412126
0.410063
0.407945
0.405761
0.403498
0.401139
0.398663
0.396038
0.393222
0.390148
0.386719
0.382777
0.378074
0.372223
0.364631
0.354476
0.340756
0.322553
0.29959
0.273018
0.246049
0.223425
0.208601
0.201986
0.200298
0.200025
0.200002
0.200018
0.200073
0.200103
0.200281
0.200044
0.200001
0.2
0.2
0.2
0.2
0.2
0.2
0.2
0.2
0.2
0.2
0.2
0.2
0.220507
0.233628
0.242304
0.251549
0.256386
0.249376
0.225423
0.20576
0.200542
0.731213
0.727914
0.72348
0.718096
0.711946
0.7052
0.69801
0.690509
0.682814
0.675025
0.667227
0.65949
0.651873
0.644421
0.637171
0.630148
0.623373
0.616857
0.61061
0.604634
0.598929
0.593494
0.588324
0.583417
0.578767
0.574368
0.570205
0.566263
0.562518
0.558947
0.555527
0.552241
0.549076
0.546025
0.543084
0.54025
0.53752
0.53489
0.532349
0.529886
0.52749
0.525145
0.52284
0.520563
0.518302
0.516048
0.513791
0.511522
0.509233
0.506919
0.504576
0.502202
0.499799
0.49737
0.494921
0.492456
0.489984
0.487512
0.485048
0.4826
0.480175
0.477781
0.475424
0.473112
0.470843
0.468622
0.466457
0.46435
0.462291
0.460274
0.458293
0.456343
0.45442
0.452521
0.450646
0.448793
0.446962
0.445151
0.443359
0.441584
0.439822
0.438069
0.436321
0.434572
0.43282
0.431059
0.429287
0.4275
0.425696
0.423871
0.422023
0.420151
0.418252
0.416325
0.414358
0.412347
0.410285
0.408165
0.405975
0.403704
0.401334
0.398845
0.396208
0.393382
0.390306
0.386888
0.382987
0.378376
0.372699
0.365405
0.355694
0.34252
0.324781
0.301862
0.274616
0.246482
0.223173
0.208801
0.202316
0.20019
0.200004
0.2
0.2
0.2
0.200001
0.200001
0.2
0.2
0.2
0.2
0.2
0.2
0.2
0.2
0.2
0.2
0.2
0.2
0.2
0.2
0.200071
0.215761
0.228449
0.235683
0.242079
0.242251
0.230755
0.21214
0.20233
0.200207
0.720419
0.717335
0.713194
0.708151
0.702367
0.695991
0.689162
0.682004
0.674628
0.667132
0.659601
0.652106
0.644705
0.637446
0.630365
0.623489
0.61684
0.61043
0.604269
0.598363
0.592714
0.587326
0.582203
0.57735
0.57277
0.568461
0.564412
0.560605
0.557012
0.553599
0.550337
0.547201
0.544178
0.541262
0.538453
0.535755
0.533168
0.53069
0.528312
0.52602
0.5238
0.521634
0.519506
0.517403
0.515311
0.513219
0.511115
0.508987
0.506826
0.504624
0.502376
0.500079
0.497736
0.49535
0.492928
0.490477
0.488007
0.485527
0.483047
0.480577
0.478125
0.475701
0.473316
0.470958
0.468645
0.466392
0.464208
0.462095
0.460049
0.458049
0.456088
0.454157
0.452252
0.450369
0.448509
0.446671
0.444856
0.443064
0.441293
0.439541
0.437805
0.436079
0.434358
0.432636
0.430907
0.429166
0.427409
0.425633
0.423833
0.422008
0.420156
0.418273
0.416355
0.414407
0.412412
0.410362
0.408249
0.406065
0.403797
0.40143
0.398942
0.396306
0.393484
0.39042
0.38703
0.383186
0.378684
0.373205
0.366251
0.357072
0.344635
0.327717
0.305357
0.277889
0.248544
0.223831
0.208933
0.202606
0.200636
0.200019
0.2
0.2
0.2
0.2
0.2
0.2
0.2
0.2
0.2
0.2
0.2
0.2
0.2
0.2
0.2
0.2
0.2
0.2
0.2
0.2
0.200226
0.210875
0.22173
0.227125
0.230228
0.22676
0.21563
0.204994
0.200873
0.200075
0.710367
0.707455
0.703534
0.698743
0.693224
0.687115
0.680543
0.673628
0.666481
0.659196
0.651859
0.644541
0.6373
0.630182
0.623223
0.61645
0.609882
0.603532
0.59741
0.59152
0.585873
0.580479
0.575352
0.570508
0.56596
0.561716
0.557773
0.554112
0.550696
0.547475
0.544402
0.541442
0.538579
0.535808
0.533139
0.530583
0.528152
0.525846
0.523656
0.521569
0.519562
0.517613
0.515702
0.513812
0.511927
0.510035
0.508121
0.506171
0.504171
0.502109
0.499979
0.497777
0.495506
0.49317
0.490779
0.488341
0.485869
0.483375
0.48087
0.478366
0.475873
0.473405
0.470948
0.468519
0.466146
0.463843
0.461627
0.459504
0.457474
0.455497
0.453561
0.451654
0.449768
0.447901
0.446054
0.44423
0.44243
0.440656
0.438908
0.437184
0.43548
0.433789
0.432104
0.430417
0.428719
0.427006
0.42527
0.423508
0.421717
0.419894
0.418038
0.416144
0.414209
0.412231
0.410205
0.408115
0.40595
0.403699
0.401345
0.39887
0.396246
0.393438
0.390395
0.387039
0.383256
0.378863
0.373577
0.366952
0.358308
0.346663
0.330755
0.309345
0.282179
0.251908
0.225458
0.209338
0.202621
0.200585
0.200208
0.200002
0.2
0.2
0.2
0.2
0.2
0.2
0.2
0.2
0.2
0.2
0.2
0.2
0.2
0.2
0.2
0.2
0.2
0.2
0.2
0.2
0.200198
0.206987
0.21495
0.218122
0.218497
0.214058
0.206772
0.201893
0.200314
0.200026
0.701051
0.698264
0.694494
0.689867
0.684515
0.678566
0.672147
0.665375
0.65836
0.651201
0.643982
0.636772
0.629629
0.622596
0.615707
0.608983
0.602441
0.59609
0.589938
0.583994
0.578272
0.572794
0.567581
0.562663
0.557931
0.553542
0.549676
0.546174
0.542981
0.540017
0.5372
0.534473
0.531806
0.529203
0.526687
0.524289
0.522037
0.519941
0.517994
0.516176
0.514457
0.512803
0.511183
0.509577
0.507968
0.506342
0.504683
0.50297
0.501185
0.49931
0.497336
0.495258
0.493078
0.490805
0.48845
0.486026
0.483549
0.481033
0.478491
0.475937
0.473385
0.470839
0.468275
0.465738
0.463251
0.460846
0.458558
0.45641
0.4544
0.452458
0.450557
0.44868
0.446816
0.444963
0.443125
0.441309
0.43952
0.437764
0.43604
0.43435
0.432686
0.431043
0.42941
0.427774
0.426124
0.424451
0.422748
0.421009
0.419233
0.417417
0.41556
0.413658
0.411707
0.409701
0.407648
0.405516
0.403292
0.400962
0.398507
0.395902
0.393114
0.390094
0.386773
0.383044
0.378745
0.373623
0.367282
0.359112
0.348208
0.33333
0.31307
0.286644
0.255926
0.227833
0.210218
0.202837
0.200601
0.200087
0.200004
0.2
0.2
0.2
0.2
0.2
0.2
0.2
0.2
0.2
0.2
0.2
0.2
0.2
0.2
0.2
0.2
0.2
0.2
0.2
0.2
0.2
0.2002
0.204325
0.209289
0.210594
0.209682
0.206347
0.202657
0.200688
0.20011
0.200009
0.69245
0.689744
0.686057
0.681508
0.676222
0.670326
0.663948
0.657212
0.65023
0.643105
0.635922
0.628748
0.621638
0.614629
0.607746
0.601007
0.594419
0.587987
0.581717
0.575621
0.569716
0.564026
0.558372
0.55255
0.546865
0.541525
0.536897
0.533662
0.530935
0.528555
0.526325
0.52412
0.521878
0.519604
0.517356
0.515217
0.513262
0.511524
0.510002
0.508665
0.507459
0.506321
0.505199
0.504065
0.502904
0.501704
0.500445
0.499104
0.497651
0.496061
0.49432
0.492423
0.490376
0.488192
0.485889
0.483485
0.481001
0.478455
0.475863
0.473241
0.470604
0.467906
0.465185
0.462459
0.459754
0.457123
0.454651
0.452429
0.450451
0.448568
0.446732
0.444909
0.443079
0.441241
0.439405
0.437589
0.435804
0.434061
0.432364
0.430715
0.429109
0.427538
0.425985
0.424432
0.422859
0.421252
0.419601
0.417902
0.416152
0.414351
0.412499
0.410593
0.408629
0.406599
0.4045
0.402325
0.400038
0.397622
0.395049
0.392289
0.389296
0.386004
0.382318
0.378089
0.373087
0.366958
0.359153
0.348851
0.334875
0.315745
0.290277
0.259566
0.23023
0.211242
0.203175
0.200705
0.200118
0.200012
0.2
0.2
0.2
0.2
0.2
0.2
0.2
0.2
0.2
0.2
0.2
0.2
0.2
0.2
0.2
0.2
0.2
0.2
0.2
0.2
0.2
0.2
0.200814
0.202685
0.205228
0.205485
0.204474
0.202592
0.200985
0.200243
0.200038
0.200003
0.684539
0.681871
0.678201
0.67364
0.668314
0.662355
0.655898
0.649078
0.64202
0.634831
0.627598
0.620384
0.613236
0.606181
0.599234
0.592399
0.585674
0.579059
0.572554
0.566165
0.559903
0.553426
0.546368
0.538948
0.531117
0.523403
0.516381
0.512789
0.510865
0.509683
0.508679
0.507545
0.506118
0.504389
0.502492
0.500658
0.499112
0.497944
0.497165
0.496728
0.496522
0.49639
0.49622
0.495968
0.495626
0.495192
0.494653
0.493972
0.493104
0.492008
0.490664
0.48907
0.487243
0.485206
0.482989
0.480624
0.478139
0.475559
0.472903
0.470189
0.467432
0.46454
0.461558
0.458484
0.455328
0.452158
0.449191
0.446766
0.444838
0.443075
0.44137
0.439652
0.437883
0.436059
0.434207
0.432366
0.430565
0.428822
0.427148
0.425552
0.424034
0.422585
0.421178
0.419778
0.418349
0.416865
0.415313
0.413686
0.411987
0.410219
0.408386
0.406487
0.404517
0.40247
0.400332
0.398119
0.395766
0.393248
0.390533
0.387579
0.384324
0.380676
0.376496
0.371569
0.365565
0.357981
0.348067
0.334723
0.316473
0.291878
0.261438
0.231515
0.211822
0.203399
0.20079
0.200148
0.200021
0.200002
0.2
0.2
0.2
0.2
0.2
0.2
0.2
0.2
0.2
0.2
0.2
0.2
0.2
0.2
0.2
0.2
0.2
0.2
0.2
0.2
0.2
0.2
0.200378
0.201345
0.202599
0.202553
0.201888
0.200993
0.200353
0.200084
0.200013
0.200001
0.677271
0.674584
0.670852
0.66619
0.660732
0.654625
0.648022
0.640916
0.633616
0.626256
0.618881
0.611547
0.604284
0.597104
0.590005
0.582976
0.576004
0.569073
0.562166
0.555267
0.548125
0.539634
0.529927
0.51902
0.506686
0.494977
0.482831
0.478571
0.477969
0.479347
0.480868
0.481853
0.481882
0.480866
0.478965
0.475916
0.474723
0.474356
0.474838
0.476108
0.477938
0.479856
0.481564
0.482984
0.484157
0.485137
0.485932
0.486488
0.486716
0.486536
0.485916
0.484866
0.483425
0.481646
0.479587
0.477301
0.474832
0.472218
0.469485
0.46665
0.463659
0.460489
0.457104
0.453446
0.449438
0.445098
0.440899
0.438097
0.436271
0.4348
0.433404
0.431929
0.430285
0.428458
0.426518
0.424575
0.42269
0.420895
0.419213
0.417669
0.416279
0.415042
0.413918
0.412818
0.411672
0.410428
0.40906
0.407568
0.405961
0.404254
0.40246
0.400585
0.398627
0.396576
0.394415
0.392124
0.389737
0.387128
0.384256
0.381066
0.37747
0.373332
0.368441
0.362469
0.354926
0.345095
0.331946
0.314038
0.289832
0.259604
0.230087
0.211164
0.20324
0.200783
0.200159
0.200026
0.200003
0.2
0.2
0.2
0.2
0.2
0.2
0.2
0.2
0.2
0.2
0.2
0.2
0.2
0.2
0.2
0.2
0.2
0.2
0.2
0.2
0.2
0.2
0.200001
0.200166
0.200611
0.201185
0.201098
0.200748
0.200365
0.200123
0.200029
0.200004
0.2
0.670605
0.667826
0.663933
0.659045
0.653311
0.646906
0.640002
0.632666
0.625147
0.617581
0.609578
0.602034
0.594572
0.587178
0.579826
0.572487
0.565123
0.557689
0.550125
0.542357
0.532549
0.520337
0.50531
0.489594
0.471688
0.45878
0.443391
0.440245
0.440499
0.445259
0.44968
0.452974
0.454356
0.45339
0.448235
0.440774
0.437716
0.437673
0.439427
0.443087
0.44844
0.453964
0.458784
0.462815
0.466309
0.469507
0.472502
0.475205
0.477388
0.478851
0.479516
0.479412
0.478632
0.477289
0.475495
0.473347
0.470923
0.468279
0.465453
0.462461
0.459212
0.455662
0.451708
0.447181
0.44176
0.435316
0.4287
0.425677
0.424088
0.423314
0.422551
0.421555
0.420117
0.418184
0.415542
0.413037
0.410929
0.408971
0.407196
0.405657
0.404425
0.403547
0.402972
0.402456
0.401849
0.401041
0.39999
0.398705
0.397227
0.395597
0.393851
0.392011
0.390081
0.388047
0.385881
0.38355
0.381032
0.378325
0.375267
0.371766
0.36768
0.362787
0.356736
0.348995
0.338796
0.325099
0.306547
0.281606
0.251329
0.22425
0.208645
0.202516
0.200632
0.200138
0.200026
0.200004
0.2
0.2
0.2
0.2
0.2
0.2
0.2
0.2
0.2
0.2
0.2
0.2
0.2
0.2
0.2
0.2
0.2
0.2
0.2
0.2
0.2
0.2
0.2
0.200001
0.200073
0.200265
0.200509
0.200446
0.200283
0.20013
0.200042
0.20001
0.200001
0.2
0.664508
0.661561
0.657391
0.652125
0.645938
0.639047
0.631666
0.623938
0.616087
0.608236
0.600061
0.592007
0.583819
0.576092
0.568371
0.560574
0.552617
0.544391
0.535748
0.525397
0.511285
0.491827
0.469406
0.452244
0.432689
0.42669
0.421873
0.391514
0.380784
0.429959
0.432929
0.435426
0.436204
0.43386
0.424841
0.412811
0.408588
0.406709
0.407239
0.410561
0.418117
0.426491
0.433454
0.439069
0.444082
0.449102
0.4544
0.459829
0.464797
0.46871
0.471303
0.472602
0.472783
0.47206
0.470634
0.468674
0.466307
0.463625
0.460681
0.45749
0.453941
0.449952
0.445342
0.439776
0.432459
0.423392
0.414171
0.411509
0.410261
0.41074
0.410805
0.41043
0.409155
0.406767
0.400831
0.397025
0.39422
0.39193
0.389892
0.388216
0.387091
0.386761
0.387297
0.387878
0.388252
0.388176
0.387584
0.386539
0.385154
0.383536
0.38177
0.379908
0.377968
0.375928
0.373729
0.371308
0.368602
0.365611
0.362205
0.358151
0.353189
0.346896
0.338602
0.327339
0.311861
0.290606
0.263062
0.234523
0.214463
0.204934
0.201469
0.200393
0.200095
0.20002
0.200004
0.200001
0.2
0.2
0.2
0.2
0.2
0.2
0.2
0.2
0.2
0.2
0.2
0.2
0.2
0.2
0.2
0.2
0.2
0.2
0.2
0.2
0.2
0.2
0.2
0.200001
0.200033
0.200112
0.200209
0.200173
0.200104
0.200046
0.200014
0.200003
0.2
0.2
0.658947
0.655742
0.651155
0.645315
0.638437
0.63081
0.622733
0.614431
0.606107
0.59783
0.589396
0.581102
0.572514
0.563431
0.555175
0.546705
0.537836
0.528333
0.517844
0.501718
0.480494
0.451541
0.425646
0.415716
0.408524
0.278495
0.204361
0.202751
0.208039
0.221774
0.372802
0.422304
0.42324
0.419138
0.403962
0.396899
0.33627
0.231071
0.245224
0.356564
0.407857
0.41345
0.417793
0.421205
0.424674
0.429061
0.43496
0.442429
0.450361
0.457139
0.462018
0.464961
0.46624
0.466198
0.465152
0.463355
0.461004
0.458235
0.455127
0.451693
0.447846
0.443465
0.438293
0.431788
0.422389
0.411792
0.403929
0.379091
0.353259
0.396321
0.397641
0.39838
0.397372
0.392879
0.37866
0.372371
0.369388
0.366552
0.363566
0.361416
0.360107
0.360573
0.364024
0.367111
0.369598
0.370966
0.371125
0.370351
0.36896
0.3672
0.365246
0.363218
0.36117
0.359062
0.356749
0.354101
0.35101
0.347342
0.343047
0.337752
0.330778
0.32118
0.307426
0.287563
0.261427
0.234663
0.215629
0.205976
0.202064
0.200661
0.200195
0.200053
0.200013
0.200003
0.2
0.2
0.2
0.2
0.2
0.2
0.2
0.2
0.2
0.2
0.2
0.2
0.2
0.2
0.2
0.2
0.2
0.2
0.2
0.2
0.2
0.2
0.2
0.2
0.2
0.200003
0.200015
0.200045
0.200082
0.200065
0.200037
0.200016
0.200005
0.200001
0.2
0.2
0.653881
0.650317
0.645134
0.638446
0.630526
0.621805
0.612744
0.60365
0.59469
0.585872
0.57707
0.568386
0.559476
0.549961
0.539557
0.530037
0.519683
0.507945
0.492224
0.463936
0.43732
0.404883
0.395122
0.290191
0.205033
0.200696
0.200036
0.200017
0.200046
0.200156
0.203349
0.338289
0.404783
0.399675
0.380979
0.233442
0.200384
0.200094
0.200316
0.204086
0.356848
0.404354
0.406297
0.406996
0.408006
0.41038
0.415334
0.424177
0.435826
0.445844
0.453005
0.45746
0.459688
0.46018
0.459363
0.457582
0.455107
0.452137
0.448794
0.445091
0.441015
0.436426
0.43102
0.423949
0.412442
0.402245
0.292115
0.201668
0.201435
0.20848
0.30967
0.385538
0.385605
0.37864
0.360114
0.258657
0.201407
0.210683
0.200377
0.200433
0.20411
0.269496
0.35203
0.353701
0.355828
0.356883
0.356373
0.354777
0.352529
0.349927
0.347185
0.344474
0.341907
0.339429
0.336608
0.333161
0.328867
0.323415
0.31626
0.306622
0.293266
0.27475
0.251269
0.228506
0.21297
0.205184
0.201965
0.200717
0.200251
0.200083
0.200025
0.200007
0.200002
0.2
0.2
0.2
0.2
0.2
0.2
0.2
0.2
0.2
0.2
0.2
0.2
0.2
0.2
0.2
0.2
0.2
0.2
0.2
0.2
0.2
0.2
0.2
0.2
0.2
0.2
0.200001
0.200006
0.200017
0.20003
0.200023
0.200013
0.200005
0.200002
0.2
0.2
0.2
0.649268
0.645236
0.639221
0.63127
0.621744
0.611358
0.600906
0.590755
0.580985
0.571525
0.562238
0.553041
0.543611
0.533603
0.52231
0.509144
0.495991
0.479577
0.445083
0.399369
0.381564
0.365955
0.21407
0.201093
0.200056
0.200005
0.2
0.2
0.2
0.200001
0.200028
0.211219
0.28872
0.375552
0.298269
0.205268
0.20004
0.2
0.200001
0.200025
0.205894
0.375217
0.309205
0.268166
0.28131
0.345892
0.385151
0.420153
0.430407
0.439457
0.446615
0.451412
0.453932
0.454521
0.453586
0.451511
0.448637
0.445246
0.44157
0.437605
0.433427
0.428939
0.423855
0.416904
0.404356
0.251094
0.200871
0.20001
0.200005
0.200074
0.201946
0.33435
0.376704
0.359361
0.331078
0.23337
0.200205
0.200056
0.200002
0.200002
0.200012
0.200236
0.201236
0.255579
0.346744
0.346355
0.34393
0.340612
0.33679
0.332677
0.328437
0.324279
0.320495
0.317209
0.31288
0.306946
0.299002
0.288468
0.274672
0.257487
0.238486
0.221336
0.210006
0.204163
0.2016
0.200589
0.200227
0.200086
0.200031
0.200011
0.200003
0.200001
0.2
0.2
0.2
0.2
0.2
0.2
0.2
0.2
0.2
0.2
0.2
0.2
0.2
0.2
0.2
0.2
0.2
0.2
0.2
0.2
0.2
0.2
0.2
0.2
0.2
0.2
0.2
0.2
0.200002
0.200006
0.200011
0.200008
0.200004
0.200002
0.200001
0.2
0.2
0.2
0.64507
0.640471
0.633321
0.623446
0.611296
0.598193
0.585717
0.574152
0.563404
0.553235
0.543369
0.533533
0.523339
0.512345
0.499833
0.483939
0.461455
0.431476
0.367789
0.335092
0.224187
0.204828
0.200201
0.20001
0.2
0.2
0.2
0.2
0.2
0.2
0.2
0.200122
0.221695
0.356319
0.255102
0.201653
0.200013
0.2
0.2
0.2
0.268251
0.342653
0.226762
0.201381
0.202717
0.278485
0.354915
0.416905
0.427155
0.43553
0.442276
0.446855
0.449145
0.449353
0.447822
0.444946
0.441166
0.436889
0.432755
0.428558
0.424236
0.419836
0.415036
0.408625
0.396431
0.22941
0.20037
0.200003
0.2
0.200001
0.200054
0.298049
0.345459
0.259181
0.243248
0.209818
0.200061
0.2
0.2
0.2
0.2
0.2
0.200002
0.203262
0.328294
0.325807
0.321062
0.315136
0.308397
0.301008
0.293094
0.28523
0.279158
0.277798
0.272535
0.263469
0.251582
0.238103
0.22498
0.214317
0.207152
0.203178
0.201322
0.200519
0.20019
0.200063
0.200026
0.20001
0.200004
0.200002
0.200001
0.2
0.2
0.2
0.2
0.2
0.2
0.2
0.2
0.2
0.2
0.2
0.2
0.2
0.2
0.2
0.2
0.2
0.2
0.2
0.2
0.2
0.2
0.2
0.2
0.2
0.2
0.2
0.2
0.2
0.200001
0.200002
0.200004
0.200003
0.200002
0.200001
0.2
0.2
0.2
0.2
0.641264
0.636067
0.627467
0.614602
0.597724
0.579423
0.563642
0.55007
0.538317
0.527561
0.517102
0.506436
0.49496
0.481895
0.466016
0.444402
0.40843
0.329361
0.242593
0.203613
0.200252
0.20008
0.200002
0.2
0.2
0.2
0.2
0.2
0.2
0.2
0.2