/*--------------------------------*- C++ -*----------------------------------*\
| =========                 |                                                 |
| \\      /  F ield         | OpenFOAM: The Open Source CFD Toolbox           |
|  \\    /   O peration     | Version:  1.6                                   |
|   \\  /    A nd           | Web:      www.OpenFOAM.org                      |
|    \\/     M anipulation  |                                                 |
\*---------------------------------------------------------------------------*/
FoamFile
{
    version     2.0;
    format      ascii;
    class       volScalarField;
    location    "0.6";
    object      T;
}
// * * * * * * * * * * * * * * * * * * * * * * * * * * * * * * * * * * * * * //

dimensions      [0 0 0 0 0 0 0];

internalField   nonuniform List<scalar> 
40000
(
0.000137187
0.000137182
0.00013718
0.000137179
0.000137178
0.000137178
0.000137178
0.000137178
0.000137178
0.000137179
0.00013718
0.00013718
0.000137183
0.000137183
0.000137185
0.000137188
0.000137188
0.00013719
0.000137193
0.000137193
0.000413408
0.000413396
0.00041339
0.000413387
0.000413384
0.000413383
0.000413382
0.000413383
0.000413384
0.000413385
0.000413389
0.000413392
0.000413396
0.000413401
0.000413405
0.000413411
0.000413416
0.000413422
0.000413428
0.00041343
0.000695195
0.000695178
0.00069517
0.000695164
0.00069516
0.000695158
0.000695157
0.000695158
0.00069516
0.000695163
0.000695167
0.000695173
0.00069518
0.000695188
0.000695195
0.000695205
0.000695214
0.000695223
0.000695233
0.000695241
0.000986341
0.000986318
0.000986308
0.0009863
0.000986295
0.000986292
0.00098629
0.000986292
0.000986294
0.000986299
0.000986305
0.000986314
0.000986323
0.000986334
0.000986344
0.000986358
0.00098637
0.000986383
0.000986397
0.000986413
0.00129074
0.00129071
0.0012907
0.00129069
0.00129068
0.00129068
0.00129068
0.00129068
0.00129068
0.00129069
0.0012907
0.00129071
0.00129072
0.00129074
0.00129075
0.00129077
0.00129078
0.0012908
0.00129081
0.00129084
0.00161245
0.00161241
0.0016124
0.00161239
0.00161238
0.00161238
0.00161237
0.00161238
0.00161238
0.00161239
0.0016124
0.00161241
0.00161243
0.00161244
0.00161246
0.00161248
0.0016125
0.00161252
0.00161254
0.00161256
0.00195571
0.00195567
0.00195565
0.00195564
0.00195563
0.00195563
0.00195563
0.00195563
0.00195563
0.00195564
0.00195565
0.00195567
0.00195569
0.00195571
0.00195573
0.00195575
0.00195577
0.0019558
0.00195582
0.00195584
0.00232502
0.00232498
0.00232496
0.00232495
0.00232494
0.00232494
0.00232493
0.00232494
0.00232494
0.00232496
0.00232497
0.00232499
0.00232501
0.00232503
0.00232505
0.00232508
0.00232511
0.00232513
0.00232516
0.00232518
0.0027252
0.00272515
0.00272513
0.00272512
0.00272511
0.0027251
0.0027251
0.00272511
0.00272511
0.00272513
0.00272514
0.00272516
0.00272518
0.00272521
0.00272523
0.00272526
0.00272529
0.00272532
0.00272536
0.00272538
0.00316138
0.00316133
0.00316131
0.00316129
0.00316128
0.00316128
0.00316128
0.00316128
0.00316129
0.00316131
0.00316132
0.00316135
0.00316137
0.0031614
0.00316143
0.00316146
0.00316149
0.00316152
0.00316156
0.00316159
0.00363913
0.00363908
0.00363906
0.00363904
0.00363903
0.00363903
0.00363903
0.00363903
0.00363904
0.00363906
0.00363908
0.0036391
0.00363913
0.00363916
0.00363919
0.00363923
0.00363926
0.0036393
0.00363934
0.00363936
0.00416449
0.00416443
0.00416441
0.00416439
0.00416438
0.00416438
0.00416438
0.00416439
0.0041644
0.00416442
0.00416444
0.00416447
0.00416449
0.00416453
0.00416456
0.0041646
0.00416463
0.00416467
0.00416471
0.00416474
0.00474401
0.00474396
0.00474393
0.00474392
0.00474391
0.0047439
0.00474391
0.00474392
0.00474393
0.00474395
0.00474397
0.004744
0.00474403
0.00474407
0.0047441
0.00474414
0.00474418
0.00474422
0.00474426
0.00474429
0.00538488
0.00538482
0.0053848
0.00538478
0.00538478
0.00538477
0.00538478
0.00538479
0.0053848
0.00538482
0.00538485
0.00538488
0.00538491
0.00538495
0.00538498
0.00538502
0.00538506
0.0053851
0.00538515
0.00538518
0.00609494
0.00609488
0.00609486
0.00609485
0.00609484
0.00609484
0.00609484
0.00609486
0.00609487
0.00609489
0.00609492
0.00609495
0.00609499
0.00609502
0.00609506
0.0060951
0.00609514
0.00609518
0.00609523
0.00609526
0.0068828
0.00688274
0.00688272
0.00688271
0.0068827
0.0068827
0.00688271
0.00688273
0.00688274
0.00688277
0.00688279
0.00688283
0.00688286
0.0068829
0.00688294
0.00688298
0.00688302
0.00688306
0.00688311
0.00688314
0.00775792
0.00775786
0.00775784
0.00775783
0.00775782
0.00775782
0.00775783
0.00775785
0.00775787
0.00775789
0.00775792
0.00775796
0.00775799
0.00775803
0.00775807
0.00775811
0.00775815
0.00775819
0.00775824
0.00775827
0.00873068
0.00873062
0.0087306
0.00873059
0.00873059
0.0087306
0.00873061
0.00873063
0.00873065
0.00873067
0.0087307
0.00873074
0.00873077
0.00873081
0.00873085
0.00873089
0.00873093
0.00873097
0.00873102
0.00873104
0.00981252
0.00981247
0.00981245
0.00981244
0.00981244
0.00981245
0.00981247
0.00981249
0.00981251
0.00981254
0.00981257
0.0098126
0.00981264
0.00981268
0.00981271
0.00981275
0.00981278
0.00981282
0.00981287
0.00981289
0.011016
0.011016
0.011016
0.011016
0.011016
0.011016
0.011016
0.011016
0.011016
0.0110161
0.0110161
0.0110161
0.0110162
0.0110162
0.0110162
0.0110163
0.0110163
0.0110163
0.0110164
0.0110164
0.0123551
0.012355
0.012355
0.012355
0.012355
0.012355
0.0123551
0.0123551
0.0123551
0.0123551
0.0123552
0.0123552
0.0123552
0.0123553
0.0123553
0.0123553
0.0123554
0.0123554
0.0123554
0.0123554
0.0138449
0.0138448
0.0138448
0.0138448
0.0138448
0.0138449
0.0138449
0.0138449
0.0138449
0.013845
0.013845
0.013845
0.0138451
0.0138451
0.0138451
0.0138452
0.0138452
0.0138452
0.0138452
0.0138453
0.0155023
0.0155022
0.0155022
0.0155022
0.0155023
0.0155023
0.0155023
0.0155023
0.0155024
0.0155024
0.0155024
0.0155025
0.0155025
0.0155025
0.0155025
0.0155026
0.0155026
0.0155026
0.0155026
0.0155026
0.0173457
0.0173457
0.0173457
0.0173457
0.0173457
0.0173457
0.0173458
0.0173458
0.0173458
0.0173459
0.0173459
0.0173459
0.017346
0.017346
0.017346
0.017346
0.017346
0.017346
0.0173461
0.0173461
0.0193955
0.0193955
0.0193955
0.0193956
0.0193956
0.0193956
0.0193956
0.0193957
0.0193957
0.0193958
0.0193958
0.0193958
0.0193958
0.0193959
0.0193958
0.0193959
0.0193959
0.0193959
0.0193959
0.0193959
0.0216741
0.0216741
0.0216741
0.0216742
0.0216742
0.0216742
0.0216743
0.0216743
0.0216744
0.0216744
0.0216744
0.0216744
0.0216745
0.0216745
0.0216745
0.0216745
0.0216744
0.0216744
0.0216745
0.0216744
0.0242061
0.0242061
0.0242061
0.0242061
0.0242062
0.0242062
0.0242062
0.0242063
0.0242063
0.0242064
0.0242064
0.0242064
0.0242064
0.0242064
0.0242064
0.0242064
0.0242064
0.0242064
0.0242064
0.0242063
0.0270183
0.0270183
0.0270184
0.0270184
0.0270185
0.0270185
0.0270186
0.0270186
0.0270187
0.0270187
0.0270187
0.0270187
0.0270187
0.0270187
0.0270187
0.0270187
0.0270186
0.0270186
0.0270186
0.0270186
0.0301406
0.0301406
0.0301407
0.0301407
0.0301408
0.0301408
0.0301409
0.0301409
0.030141
0.030141
0.030141
0.030141
0.030141
0.030141
0.030141
0.030141
0.0301409
0.0301409
0.0301409
0.0301408
0.0336054
0.0336054
0.0336055
0.0336055
0.0336056
0.0336057
0.0336057
0.0336058
0.0336058
0.0336058
0.0336059
0.0336059
0.0336059
0.0336059
0.0336058
0.0336058
0.0336057
0.0336056
0.0336056
0.0336055
0.0374484
0.0374484
0.0374484
0.0374485
0.0374486
0.0374487
0.0374487
0.0374488
0.0374488
0.0374489
0.0374489
0.0374489
0.0374489
0.0374488
0.0374488
0.0374487
0.0374486
0.0374486
0.0374485
0.0374484
0.0417085
0.0417086
0.0417087
0.0417087
0.0417088
0.0417089
0.041709
0.041709
0.0417091
0.0417091
0.0417091
0.0417091
0.0417091
0.0417091
0.041709
0.0417089
0.0417088
0.0417087
0.0417087
0.0417086
0.0464287
0.0464288
0.0464288
0.0464289
0.046429
0.0464291
0.0464292
0.0464293
0.0464293
0.0464293
0.0464293
0.0464293
0.0464293
0.0464293
0.0464292
0.0464291
0.046429
0.0464289
0.0464288
0.0464287
0.0516556
0.0516556
0.0516557
0.0516558
0.0516559
0.051656
0.0516561
0.0516562
0.0516562
0.0516563
0.0516563
0.0516563
0.0516562
0.0516562
0.0516561
0.051656
0.0516558
0.0516557
0.0516556
0.0516555
0.0574402
0.0574403
0.0574404
0.0574405
0.0574406
0.0574407
0.0574408
0.0574409
0.0574409
0.057441
0.057441
0.057441
0.0574409
0.0574409
0.0574407
0.0574406
0.0574405
0.0574403
0.0574403
0.0574401
0.0638384
0.0638385
0.0638386
0.0638387
0.0638388
0.0638389
0.063839
0.0638391
0.0638392
0.0638392
0.0638392
0.0638392
0.0638391
0.063839
0.0638389
0.0638388
0.0638386
0.0638385
0.0638384
0.0638382
0.0709108
0.0709109
0.070911
0.0709111
0.0709112
0.0709113
0.0709114
0.0709115
0.0709116
0.0709116
0.0709116
0.0709116
0.0709116
0.0709115
0.0709113
0.0709112
0.070911
0.0709108
0.0709107
0.0709105
0.0787236
0.0787237
0.0787238
0.0787239
0.078724
0.0787242
0.0787243
0.0787244
0.0787245
0.0787245
0.0787245
0.0787245
0.0787244
0.0787243
0.0787241
0.078724
0.0787238
0.0787236
0.0787235
0.0787233
0.0873488
0.0873489
0.087349
0.0873491
0.0873493
0.0873494
0.0873495
0.0873497
0.0873497
0.0873498
0.0873498
0.0873498
0.0873497
0.0873496
0.0873494
0.0873492
0.087349
0.0873488
0.0873487
0.0873485
0.0968646
0.0968647
0.0968648
0.096865
0.0968651
0.0968652
0.0968654
0.0968655
0.0968656
0.0968656
0.0968656
0.0968656
0.0968655
0.0968654
0.0968652
0.0968651
0.0968648
0.0968646
0.0968645
0.0968643
0.107356
0.107356
0.107356
0.107356
0.107356
0.107357
0.107357
0.107357
0.107357
0.107357
0.107357
0.107357
0.107357
0.107357
0.107357
0.107356
0.107356
0.107356
0.107356
0.107356
0.118915
0.118915
0.118915
0.118915
0.118915
0.118915
0.118916
0.118916
0.118916
0.118916
0.118916
0.118916
0.118916
0.118916
0.118915
0.118915
0.118915
0.118915
0.118915
0.118914
0.131641
0.131641
0.131641
0.131641
0.131641
0.131641
0.131641
0.131642
0.131642
0.131642
0.131642
0.131642
0.131642
0.131642
0.131641
0.131641
0.131641
0.131641
0.131641
0.13164
0.145641
0.145641
0.145641
0.145641
0.145642
0.145642
0.145642
0.145642
0.145642
0.145642
0.145642
0.145642
0.145642
0.145642
0.145642
0.145642
0.145641
0.145641
0.145641
0.145641
0.161033
0.161033
0.161033
0.161033
0.161033
0.161033
0.161034
0.161034
0.161034
0.161034
0.161034
0.161034
0.161034
0.161034
0.161034
0.161033
0.161033
0.161033
0.161033
0.161032
0.17794
0.17794
0.177941
0.177941
0.177941
0.177941
0.177941
0.177942
0.177942
0.177942
0.177942
0.177942
0.177942
0.177942
0.177941
0.177941
0.177941
0.177941
0.177941
0.17794
0.196499
0.196499
0.196499
0.1965
0.1965
0.1965
0.1965
0.196501
0.196501
0.196501
0.196501
0.196501
0.196501
0.196501
0.1965
0.1965
0.1965
0.1965
0.1965
0.196499
0.216854
0.216854
0.216854
0.216854
0.216855
0.216855
0.216855
0.216855
0.216856
0.216856
0.216856
0.216856
0.216856
0.216856
0.216855
0.216855
0.216855
0.216854
0.216854
0.216854
0.23916
0.23916
0.23916
0.23916
0.239161
0.239161
0.239161
0.239162
0.239162
0.239162
0.239162
0.239162
0.239162
0.239162
0.239162
0.239161
0.239161
0.239161
0.239161
0.23916
0.263584
0.263584
0.263584
0.263584
0.263585
0.263585
0.263585
0.263586
0.263586
0.263586
0.263586
0.263586
0.263586
0.263586
0.263586
0.263585
0.263585
0.263585
0.263585
0.263584
0.290304
0.290304
0.290304
0.290304
0.290304
0.290305
0.290305
0.290306
0.290306
0.290306
0.290306
0.290306
0.290306
0.290306
0.290305
0.290305
0.290305
0.290304
0.290304
0.290304
0.319509
0.319509
0.319509
0.31951
0.31951
0.31951
0.319511
0.319511
0.319511
0.319512
0.319512
0.319512
0.319512
0.319511
0.319511
0.319511
0.31951
0.31951
0.31951
0.319509
0.351402
0.351402
0.351403
0.351403
0.351403
0.351404
0.351404
0.351405
0.351405
0.351405
0.351405
0.351405
0.351405
0.351405
0.351404
0.351404
0.351404
0.351403
0.351403
0.351403
0.386199
0.386199
0.386199
0.386199
0.3862
0.3862
0.3862
0.386201
0.386201
0.386201
0.386202
0.386202
0.386201
0.386201
0.386201
0.3862
0.3862
0.386199
0.386199
0.386199
0.424126
0.424126
0.424126
0.424127
0.424127
0.424127
0.424128
0.424128
0.424129
0.424129
0.424129
0.424129
0.424129
0.424128
0.424128
0.424127
0.424127
0.424126
0.424126
0.424126
0.465425
0.465425
0.465426
0.465426
0.465426
0.465427
0.465427
0.465428
0.465428
0.465428
0.465428
0.465428
0.465428
0.465428
0.465427
0.465427
0.465426
0.465426
0.465425
0.465425
0.510352
0.510352
0.510352
0.510353
0.510353
0.510353
0.510354
0.510354
0.510355
0.510355
0.510355
0.510355
0.510355
0.510354
0.510353
0.510353
0.510352
0.510352
0.510351
0.510351
0.559174
0.559174
0.559174
0.559174
0.559175
0.559175
0.559176
0.559176
0.559177
0.559177
0.559177
0.559177
0.559176
0.559176
0.559175
0.559174
0.559174
0.559173
0.559173
0.559172
0.612173
0.612173
0.612173
0.612174
0.612174
0.612174
0.612175
0.612175
0.612176
0.612176
0.612176
0.612176
0.612175
0.612175
0.612174
0.612173
0.612172
0.612172
0.612171
0.61217
0.669644
0.669644
0.669644
0.669645
0.669645
0.669646
0.669646
0.669647
0.669647
0.669647
0.669647
0.669647
0.669646
0.669646
0.669645
0.669644
0.669643
0.669642
0.669642
0.669641
0.731896
0.731896
0.731897
0.731897
0.731897
0.731898
0.731898
0.731899
0.731899
0.731899
0.731899
0.731899
0.731898
0.731898
0.731896
0.731896
0.731895
0.731894
0.731894
0.731893
0.79925
0.79925
0.79925
0.799251
0.799251
0.799252
0.799252
0.799252
0.799253
0.799253
0.799252
0.799252
0.799251
0.799251
0.79925
0.799249
0.799248
0.799247
0.799247
0.799246
0.872038
0.872038
0.872038
0.872039
0.872039
0.87204
0.87204
0.872041
0.872041
0.872041
0.87204
0.87204
0.872039
0.872039
0.872037
0.872037
0.872036
0.872035
0.872034
0.872033
0.950605
0.950605
0.950605
0.950606
0.950606
0.950607
0.950607
0.950607
0.950607
0.950607
0.950607
0.950607
0.950606
0.950605
0.950604
0.950603
0.950602
0.950601
0.950601
0.9506
1.0353
1.03531
1.03531
1.03531
1.03531
1.03531
1.03531
1.03531
1.03531
1.03531
1.03531
1.03531
1.03531
1.03531
1.0353
1.0353
1.0353
1.0353
1.0353
1.0353
1.1265
1.1265
1.1265
1.1265
1.1265
1.1265
1.1265
1.1265
1.1265
1.1265
1.1265
1.1265
1.1265
1.1265
1.1265
1.1265
1.1265
1.1265
1.1265
1.1265
1.22457
1.22457
1.22457
1.22457
1.22457
1.22457
1.22457
1.22457
1.22457
1.22457
1.22457
1.22457
1.22457
1.22457
1.22456
1.22456
1.22456
1.22456
1.22456
1.22456
1.32987
1.32987
1.32987
1.32987
1.32987
1.32987
1.32987
1.32987
1.32987
1.32987
1.32987
1.32987
1.32987
1.32987
1.32987
1.32987
1.32987
1.32987
1.32987
1.32987
1.4428
1.4428
1.4428
1.4428
1.4428
1.44281
1.44281
1.44281
1.44281
1.44281
1.44281
1.4428
1.4428
1.4428
1.4428
1.4428
1.4428
1.4428
1.4428
1.4428
1.56374
1.56374
1.56374
1.56374
1.56374
1.56374
1.56374
1.56374
1.56374
1.56374
1.56374
1.56374
1.56374
1.56374
1.56374
1.56374
1.56374
1.56374
1.56374
1.56373
1.69306
1.69306
1.69306
1.69306
1.69306
1.69306
1.69306
1.69306
1.69306
1.69306
1.69306
1.69306
1.69306
1.69306
1.69306
1.69306
1.69306
1.69306
1.69306
1.69306
1.83114
1.83114
1.83114
1.83114
1.83114
1.83114
1.83114
1.83114
1.83114
1.83114
1.83114
1.83114
1.83114
1.83114
1.83114
1.83114
1.83114
1.83114
1.83114
1.83114
1.97835
1.97835
1.97835
1.97835
1.97835
1.97835
1.97835
1.97835
1.97835
1.97835
1.97835
1.97835
1.97835
1.97835
1.97835
1.97835
1.97835
1.97835
1.97835
1.97835
2.13505
2.13505
2.13505
2.13505
2.13505
2.13505
2.13505
2.13505
2.13505
2.13505
2.13505
2.13505
2.13505
2.13505
2.13505
2.13505
2.13505
2.13505
2.13505
2.13504
2.30157
2.30157
2.30157
2.30157
2.30157
2.30157
2.30157
2.30157
2.30157
2.30157
2.30157
2.30157
2.30157
2.30157
2.30157
2.30157
2.30157
2.30157
2.30157
2.30157
2.47824
2.47824
2.47824
2.47824
2.47824
2.47824
2.47824
2.47824
2.47824
2.47824
2.47824
2.47824
2.47824
2.47824
2.47824
2.47824
2.47824
2.47824
2.47824
2.47823
2.66535
2.66535
2.66535
2.66535
2.66535
2.66535
2.66535
2.66535
2.66535
2.66535
2.66535
2.66535
2.66535
2.66535
2.66535
2.66535
2.66535
2.66535
2.66535
2.66535
2.86318
2.86318
2.86318
2.86318
2.86318
2.86318
2.86318
2.86318
2.86318
2.86318
2.86318
2.86318
2.86318
2.86318
2.86318
2.86318
2.86318
2.86318
2.86318
2.86318
3.07196
3.07196
3.07196
3.07196
3.07196
3.07196
3.07196
3.07196
3.07196
3.07196
3.07196
3.07196
3.07196
3.07196
3.07196
3.07196
3.07196
3.07196
3.07196
3.07196
3.29189
3.29189
3.29189
3.29189
3.29189
3.29189
3.29189
3.29189
3.29189
3.29189
3.29189
3.29189
3.29189
3.29189
3.29189
3.29189
3.29189
3.29189
3.29189
3.29189
3.52312
3.52312
3.52312
3.52312
3.52312
3.52312
3.52312
3.52312
3.52312
3.52312
3.52312
3.52312
3.52312
3.52312
3.52312
3.52312
3.52312
3.52312
3.52312
3.52312
3.76576
3.76576
3.76576
3.76576
3.76576
3.76576
3.76576
3.76576
3.76575
3.76575
3.76575
3.76575
3.76575
3.76575
3.76575
3.76575
3.76576
3.76576
3.76576
3.76576
4.01985
4.01985
4.01985
4.01985
4.01985
4.01985
4.01985
4.01985
4.01985
4.01984
4.01984
4.01984
4.01984
4.01984
4.01984
4.01984
4.01985
4.01985
4.01985
4.01985
4.28538
4.28538
4.28538
4.28538
4.28538
4.28538
4.28538
4.28538
4.28538
4.28538
4.28538
4.28538
4.28538
4.28538
4.28538
4.28538
4.28538
4.28538
4.28538
4.28538
4.56229
4.56229
4.56229
4.56229
4.56229
4.56229
4.56229
4.56229
4.56229
4.56229
4.56229
4.56229
4.56229
4.56229
4.56229
4.56229
4.56229
4.56229
4.56229
4.56229
4.85043
4.85043
4.85043
4.85043
4.85043
4.85043
4.85043
4.85043
4.85043
4.85043
4.85043
4.85043
4.85043
4.85043
4.85043
4.85043
4.85043
4.85043
4.85043
4.85043
5.14959
5.14959
5.14959
5.14959
5.14959
5.14959
5.14959
5.14959
5.14959
5.14959
5.14959
5.14959
5.14959
5.14959
5.14959
5.14959
5.14959
5.14959
5.14959
5.14959
5.45948
5.45948
5.45948
5.45948
5.45948
5.45948
5.45948
5.45948
5.45948
5.45948
5.45948
5.45948
5.45948
5.45948
5.45948
5.45948
5.45948
5.45948
5.45948
5.45948
5.77973
5.77973
5.77973
5.77974
5.77973
5.77973
5.77973
5.77973
5.77973
5.77973
5.77973
5.77973
5.77973
5.77973
5.77973
5.77973
5.77973
5.77973
5.77973
5.77973
6.10991
6.10991
6.10991
6.10991
6.10991
6.10991
6.10991
6.10991
6.10991
6.10991
6.1099
6.1099
6.1099
6.1099
6.10991
6.10991
6.10991
6.10991
6.10991
6.10991
6.44947
6.44947
6.44947
6.44947
6.44947
6.44947
6.44947
6.44947
6.44947
6.44947
6.44947
6.44947
6.44947
6.44947
6.44947
6.44947
6.44947
6.44947
6.44947
6.44947
6.79783
6.79783
6.79783
6.79783
6.79783
6.79783
6.79783
6.79783
6.79783
6.79783
6.79783
6.79783
6.79783
6.79783
6.79783
6.79783
6.79783
6.79783
6.79783
6.79783
7.1543
7.1543
7.1543
7.1543
7.1543
7.1543
7.1543
7.1543
7.1543
7.1543
7.1543
7.1543
7.1543
7.1543
7.1543
7.1543
7.1543
7.1543
7.1543
7.1543
7.51813
7.51813
7.51813
7.51813
7.51813
7.51813
7.51813
7.51813
7.51813
7.51813
7.51812
7.51812
7.51812
7.51812
7.51812
7.51812
7.51812
7.51812
7.51812
7.51812
7.88848
7.88848
7.88848
7.88848
7.88848
7.88848
7.88848
7.88848
7.88848
7.88848
7.88848
7.88848
7.88848
7.88848
7.88848
7.88848
7.88848
7.88848
7.88848
7.88848
8.26448
8.26448
8.26448
8.26448
8.26448
8.26448
8.26448
8.26448
8.26448
8.26448
8.26448
8.26448
8.26448
8.26448
8.26448
8.26448
8.26448
8.26448
8.26448
8.26448
8.64518
8.64518
8.64518
8.64518
8.64518
8.64518
8.64518
8.64518
8.64518
8.64518
8.64518
8.64518
8.64518
8.64518
8.64518
8.64518
8.64518
8.64518
8.64518
8.64518
9.02959
9.02959
9.02959
9.02959
9.02959
9.02959
9.02959
9.02959
9.02959
9.02959
9.02959
9.02959
9.02959
9.02959
9.02959
9.02959
9.02959
9.02959
9.02959
9.02959
9.41668
9.41668
9.41668
9.41668
9.41668
9.41668
9.41668
9.41668
9.41668
9.41668
9.41668
9.41667
9.41667
9.41667
9.41667
9.41668
9.41668
9.41667
9.41667
9.41668
9.80538
9.80538
9.80538
9.80538
9.80538
9.80538
9.80538
9.80538
9.80538
9.80538
9.80538
9.80538
9.80538
9.80538
9.80538
9.80538
9.80538
9.80538
9.80538
9.80538
0.000137182
0.000137179
0.000137177
0.000137176
0.000137175
0.000137174
0.000137174
0.000137174
0.000137175
0.000137175
0.000137176
0.000137177
0.000137179
0.00013718
0.000137182
0.000137183
0.000137185
0.000137188
0.000137189
0.000137189
0.000413396
0.000413386
0.000413381
0.000413378
0.000413375
0.000413374
0.000413374
0.000413373
0.000413375
0.000413377
0.000413379
0.000413383
0.000413387
0.000413392
0.000413396
0.000413402
0.000413408
0.000413414
0.000413417
0.00041342
0.000695178
0.000695164
0.000695156
0.000695151
0.000695146
0.000695144
0.000695143
0.000695144
0.000695146
0.000695149
0.000695153
0.00069516
0.000695167
0.000695174
0.000695182
0.000695191
0.0006952
0.000695211
0.000695218
0.000695224
0.000986318
0.0009863
0.00098629
0.000986282
0.000986276
0.000986274
0.000986272
0.000986274
0.000986276
0.000986281
0.000986287
0.000986296
0.000986305
0.000986316
0.000986328
0.00098634
0.000986353
0.000986368
0.000986379
0.000986391
0.00129071
0.00129069
0.00129068
0.00129067
0.00129066
0.00129066
0.00129066
0.00129066
0.00129066
0.00129067
0.00129068
0.00129069
0.0012907
0.00129071
0.00129073
0.00129074
0.00129076
0.00129078
0.0012908
0.00129081
0.00161241
0.00161239
0.00161237
0.00161236
0.00161235
0.00161235
0.00161235
0.00161235
0.00161235
0.00161236
0.00161237
0.00161239
0.0016124
0.00161242
0.00161244
0.00161245
0.00161247
0.0016125
0.00161252
0.00161254
0.00195567
0.00195564
0.00195562
0.00195561
0.0019556
0.0019556
0.0019556
0.0019556
0.0019556
0.00195561
0.00195563
0.00195564
0.00195566
0.00195568
0.0019557
0.00195572
0.00195575
0.00195577
0.0019558
0.00195582
0.00232498
0.00232495
0.00232493
0.00232492
0.00232491
0.0023249
0.0023249
0.00232491
0.00232491
0.00232492
0.00232494
0.00232495
0.00232498
0.002325
0.00232502
0.00232505
0.00232507
0.00232511
0.00232513
0.00232516
0.00272515
0.00272511
0.0027251
0.00272508
0.00272507
0.00272507
0.00272507
0.00272507
0.00272508
0.00272509
0.00272511
0.00272513
0.00272515
0.00272517
0.0027252
0.00272523
0.00272526
0.00272529
0.00272533
0.00272536
0.00316133
0.00316129
0.00316127
0.00316125
0.00316124
0.00316124
0.00316124
0.00316124
0.00316125
0.00316127
0.00316128
0.00316131
0.00316133
0.00316136
0.00316139
0.00316142
0.00316145
0.00316149
0.00316153
0.00316157
0.00363908
0.00363904
0.00363902
0.003639
0.00363899
0.00363898
0.00363899
0.00363899
0.003639
0.00363902
0.00363904
0.00363906
0.00363909
0.00363912
0.00363915
0.00363919
0.00363922
0.00363926
0.0036393
0.00363934
0.00416443
0.00416439
0.00416437
0.00416435
0.00416434
0.00416434
0.00416434
0.00416435
0.00416436
0.00416437
0.0041644
0.00416442
0.00416445
0.00416448
0.00416452
0.00416456
0.00416459
0.00416463
0.00416468
0.00416472
0.00474396
0.00474391
0.00474389
0.00474387
0.00474386
0.00474386
0.00474386
0.00474387
0.00474388
0.0047439
0.00474393
0.00474396
0.00474399
0.00474402
0.00474406
0.0047441
0.00474413
0.00474418
0.00474422
0.00474427
0.00538482
0.00538478
0.00538476
0.00538474
0.00538473
0.00538473
0.00538473
0.00538474
0.00538476
0.00538478
0.0053848
0.00538483
0.00538487
0.0053849
0.00538494
0.00538498
0.00538502
0.00538507
0.00538511
0.00538516
0.00609488
0.00609484
0.00609481
0.0060948
0.00609479
0.00609479
0.0060948
0.00609481
0.00609482
0.00609485
0.00609487
0.00609491
0.00609494
0.00609498
0.00609502
0.00609506
0.0060951
0.00609514
0.00609519
0.00609524
0.00688274
0.0068827
0.00688268
0.00688266
0.00688265
0.00688266
0.00688266
0.00688268
0.0068827
0.00688272
0.00688275
0.00688278
0.00688282
0.00688285
0.00688289
0.00688293
0.00688297
0.00688302
0.00688307
0.00688312
0.00775786
0.00775781
0.00775779
0.00775778
0.00775777
0.00775778
0.00775779
0.0077578
0.00775782
0.00775785
0.00775788
0.00775791
0.00775795
0.00775799
0.00775803
0.00775807
0.00775811
0.00775815
0.0077582
0.00775825
0.00873062
0.00873058
0.00873056
0.00873055
0.00873054
0.00873055
0.00873056
0.00873058
0.0087306
0.00873063
0.00873066
0.00873069
0.00873073
0.00873077
0.00873081
0.00873085
0.00873088
0.00873093
0.00873098
0.00873103
0.00981247
0.00981242
0.00981241
0.0098124
0.0098124
0.00981241
0.00981242
0.00981244
0.00981247
0.00981249
0.00981253
0.00981256
0.0098126
0.00981263
0.00981267
0.00981271
0.00981274
0.00981279
0.00981283
0.00981288
0.011016
0.0110159
0.0110159
0.0110159
0.0110159
0.0110159
0.011016
0.011016
0.011016
0.011016
0.0110161
0.0110161
0.0110161
0.0110162
0.0110162
0.0110162
0.0110163
0.0110163
0.0110164
0.0110164
0.012355
0.012355
0.012355
0.012355
0.012355
0.012355
0.012355
0.012355
0.0123551
0.0123551
0.0123551
0.0123552
0.0123552
0.0123552
0.0123553
0.0123553
0.0123553
0.0123554
0.0123554
0.0123554
0.0138448
0.0138448
0.0138448
0.0138448
0.0138448
0.0138448
0.0138449
0.0138449
0.0138449
0.0138449
0.013845
0.013845
0.013845
0.0138451
0.0138451
0.0138451
0.0138451
0.0138452
0.0138452
0.0138453
0.0155022
0.0155022
0.0155022
0.0155022
0.0155022
0.0155023
0.0155023
0.0155023
0.0155023
0.0155024
0.0155024
0.0155024
0.0155025
0.0155025
0.0155025
0.0155025
0.0155025
0.0155026
0.0155026
0.0155026
0.0173457
0.0173457
0.0173457
0.0173457
0.0173457
0.0173457
0.0173458
0.0173458
0.0173458
0.0173459
0.0173459
0.0173459
0.0173459
0.017346
0.017346
0.017346
0.017346
0.017346
0.017346
0.0173461
0.0193955
0.0193955
0.0193955
0.0193955
0.0193956
0.0193956
0.0193956
0.0193957
0.0193957
0.0193957
0.0193958
0.0193958
0.0193958
0.0193958
0.0193958
0.0193958
0.0193958
0.0193959
0.0193959
0.0193959
0.0216741
0.0216741
0.0216741
0.0216742
0.0216742
0.0216742
0.0216743
0.0216743
0.0216743
0.0216744
0.0216744
0.0216744
0.0216745
0.0216745
0.0216745
0.0216745
0.0216744
0.0216744
0.0216745
0.0216745
0.0242061
0.0242061
0.0242061
0.0242061
0.0242062
0.0242062
0.0242062
0.0242063
0.0242063
0.0242064
0.0242064
0.0242064
0.0242064
0.0242064
0.0242064
0.0242064
0.0242064
0.0242064
0.0242064
0.0242064
0.0270183
0.0270184
0.0270184
0.0270184
0.0270185
0.0270185
0.0270186
0.0270186
0.0270187
0.0270187
0.0270187
0.0270187
0.0270188
0.0270187
0.0270187
0.0270187
0.0270187
0.0270186
0.0270186
0.0270186
0.0301406
0.0301406
0.0301407
0.0301407
0.0301408
0.0301408
0.0301409
0.030141
0.030141
0.030141
0.030141
0.0301411
0.0301411
0.030141
0.030141
0.030141
0.0301409
0.0301409
0.0301409
0.0301408
0.0336054
0.0336054
0.0336055
0.0336056
0.0336056
0.0336057
0.0336057
0.0336058
0.0336058
0.0336059
0.0336059
0.0336059
0.0336059
0.0336059
0.0336058
0.0336058
0.0336057
0.0336057
0.0336056
0.0336056
0.0374484
0.0374484
0.0374485
0.0374486
0.0374486
0.0374487
0.0374488
0.0374488
0.0374489
0.0374489
0.0374489
0.0374489
0.0374489
0.0374489
0.0374488
0.0374487
0.0374487
0.0374486
0.0374486
0.0374485
0.0417086
0.0417086
0.0417087
0.0417088
0.0417088
0.0417089
0.041709
0.0417091
0.0417091
0.0417091
0.0417092
0.0417092
0.0417091
0.0417091
0.041709
0.0417089
0.0417088
0.0417088
0.0417087
0.0417087
0.0464288
0.0464288
0.0464289
0.046429
0.046429
0.0464291
0.0464292
0.0464293
0.0464293
0.0464294
0.0464294
0.0464294
0.0464294
0.0464293
0.0464292
0.0464291
0.046429
0.0464289
0.0464288
0.0464288
0.0516556
0.0516557
0.0516558
0.0516559
0.051656
0.0516561
0.0516561
0.0516562
0.0516563
0.0516563
0.0516563
0.0516563
0.0516563
0.0516562
0.0516561
0.051656
0.0516559
0.0516558
0.0516557
0.0516556
0.0574403
0.0574404
0.0574405
0.0574406
0.0574406
0.0574408
0.0574409
0.0574409
0.057441
0.057441
0.057441
0.057441
0.057441
0.0574409
0.0574408
0.0574407
0.0574405
0.0574404
0.0574403
0.0574402
0.0638385
0.0638385
0.0638386
0.0638388
0.0638388
0.063839
0.063839
0.0638391
0.0638392
0.0638392
0.0638392
0.0638392
0.0638392
0.0638391
0.063839
0.0638388
0.0638386
0.0638385
0.0638384
0.0638383
0.0709109
0.0709109
0.070911
0.0709112
0.0709112
0.0709114
0.0709115
0.0709116
0.0709117
0.0709117
0.0709117
0.0709117
0.0709116
0.0709115
0.0709114
0.0709112
0.070911
0.0709109
0.0709108
0.0709107
0.0787237
0.0787238
0.0787239
0.078724
0.0787241
0.0787242
0.0787243
0.0787245
0.0787245
0.0787246
0.0787246
0.0787246
0.0787245
0.0787244
0.0787242
0.0787241
0.0787239
0.0787237
0.0787236
0.0787235
0.0873489
0.087349
0.0873491
0.0873492
0.0873493
0.0873495
0.0873496
0.0873497
0.0873498
0.0873498
0.0873498
0.0873498
0.0873498
0.0873496
0.0873495
0.0873493
0.0873491
0.0873489
0.0873488
0.0873486
0.0968647
0.0968648
0.0968649
0.096865
0.0968651
0.0968653
0.0968654
0.0968656
0.0968656
0.0968657
0.0968657
0.0968657
0.0968656
0.0968655
0.0968653
0.0968651
0.0968649
0.0968647
0.0968646
0.0968644
0.107356
0.107356
0.107356
0.107356
0.107356
0.107357
0.107357
0.107357
0.107357
0.107357
0.107357
0.107357
0.107357
0.107357
0.107357
0.107356
0.107356
0.107356
0.107356
0.107356
0.118915
0.118915
0.118915
0.118915
0.118915
0.118915
0.118916
0.118916
0.118916
0.118916
0.118916
0.118916
0.118916
0.118916
0.118915
0.118915
0.118915
0.118915
0.118915
0.118915
0.131641
0.131641
0.131641
0.131641
0.131641
0.131641
0.131641
0.131642
0.131642
0.131642
0.131642
0.131642
0.131642
0.131642
0.131641
0.131641
0.131641
0.131641
0.131641
0.13164
0.145641
0.145641
0.145641
0.145642
0.145642
0.145642
0.145642
0.145642
0.145642
0.145642
0.145642
0.145642
0.145642
0.145642
0.145642
0.145642
0.145641
0.145641
0.145641
0.145641
0.161033
0.161033
0.161033
0.161033
0.161033
0.161033
0.161034
0.161034
0.161034
0.161034
0.161034
0.161034
0.161034
0.161034
0.161034
0.161033
0.161033
0.161033
0.161033
0.161033
0.17794
0.17794
0.177941
0.177941
0.177941
0.177941
0.177941
0.177942
0.177942
0.177942
0.177942
0.177942
0.177942
0.177942
0.177942
0.177941
0.177941
0.177941
0.177941
0.17794
0.196499
0.196499
0.196499
0.1965
0.1965
0.1965
0.1965
0.196501
0.196501
0.196501
0.196501
0.196501
0.196501
0.196501
0.1965
0.1965
0.1965
0.1965
0.196499
0.196499
0.216854
0.216854
0.216854
0.216854
0.216855
0.216855
0.216855
0.216855
0.216856
0.216856
0.216856
0.216856
0.216856
0.216856
0.216855
0.216855
0.216855
0.216854
0.216854
0.216854
0.23916
0.23916
0.23916
0.239161
0.239161
0.239161
0.239161
0.239162
0.239162
0.239162
0.239162
0.239162
0.239162
0.239162
0.239162
0.239161
0.239161
0.239161
0.239161
0.23916
0.263584
0.263584
0.263584
0.263585
0.263585
0.263585
0.263585
0.263586
0.263586
0.263586
0.263586
0.263586
0.263586
0.263586
0.263586
0.263585
0.263585
0.263585
0.263585
0.263584
0.290304
0.290304
0.290304
0.290304
0.290304
0.290305
0.290305
0.290306
0.290306
0.290306
0.290306
0.290306
0.290306
0.290306
0.290306
0.290305
0.290305
0.290305
0.290304
0.290304
0.319509
0.319509
0.319509
0.31951
0.31951
0.31951
0.319511
0.319511
0.319511
0.319511
0.319512
0.319512
0.319512
0.319511
0.319511
0.319511
0.31951
0.31951
0.31951
0.31951
0.351402
0.351402
0.351403
0.351403
0.351403
0.351404
0.351404
0.351405
0.351405
0.351405
0.351405
0.351405
0.351405
0.351405
0.351404
0.351404
0.351404
0.351403
0.351403
0.351403
0.386199
0.386199
0.386199
0.386199
0.3862
0.3862
0.3862
0.386201
0.386201
0.386201
0.386202
0.386202
0.386201
0.386201
0.386201
0.3862
0.3862