/*--------------------------------*- C++ -*----------------------------------*\
| =========                 |                                                 |
| \\      /  F ield         | OpenFOAM: The Open Source CFD Toolbox           |
|  \\    /   O peration     | Version:  2.1.0                                 |
|   \\  /    A nd           | Web:      www.OpenFOAM.org                      |
|    \\/     M anipulation  |                                                 |
\*---------------------------------------------------------------------------*/
FoamFile
{
    version     2.0;
    format      ascii;
    class       volScalarField;
    location    "28105";
    object      kr_o;
}
// * * * * * * * * * * * * * * * * * * * * * * * * * * * * * * * * * * * * * //

dimensions      [0 0 0 0 0 0 0];

internalField   nonuniform List<scalar> 
8000
(
0.0144766
0.0180337
0.0229859
0.0290069
0.035842
0.0432872
0.0511767
0.0593758
0.0677767
0.0762746
0.0847625
0.0931498
0.10137
0.109378
0.117153
0.124685
0.131972
0.139025
0.145866
0.15252
0.159019
0.165395
0.171686
0.177934
0.184191
0.190516
0.196987
0.203704
0.210801
0.218463
0.226962
0.236714
0.248402
0.263223
0.283454
0.31361
0.361808
0.436623
0.520096
0.557593
0.0180333
0.0215922
0.0264933
0.0324307
0.0391676
0.0465177
0.0543274
0.0624699
0.0708387
0.0793195
0.087801
0.0961904
0.104419
0.112442
0.120235
0.127788
0.135095
0.142169
0.14903
0.155703
0.162216
0.1686
0.174888
0.18112
0.187341
0.193608
0.199994
0.206595
0.213546
0.221037
0.229346
0.238901
0.250403
0.265075
0.285249
0.315542
0.364176
0.439319
0.521675
0.557838
0.0229855
0.0264933
0.0312873
0.0370876
0.0436822
0.0509017
0.0586069
0.0666816
0.0750129
0.0834758
0.0919537
0.10035
0.108592
0.116632
0.124444
0.132014
0.139335
0.146421
0.153291
0.159966
0.166472
0.172834
0.179081
0.185244
0.191364
0.197491
0.203691
0.21006
0.216734
0.223911
0.231887
0.241109
0.252301
0.266715
0.28673
0.317054
0.36599
0.441344
0.52284
0.558019
0.0290067
0.0324305
0.0370875
0.0427315
0.0491719
0.056259
0.0638697
0.0718942
0.0802056
0.0886719
0.0971694
0.105594
0.113869
0.121943
0.129785
0.137376
0.144715
0.151816
0.158695
0.165371
0.171863
0.178191
0.184375
0.190439
0.196411
0.202331
0.208256
0.214277
0.220534
0.22724
0.234715
0.243445
0.254183
0.268217
0.287973
0.318235
0.367381
0.442898
0.523736
0.558161
0.0358419
0.0391674
0.0436821
0.0491719
0.0554713
0.0624516
0.0700057
0.0780159
0.0863493
0.0948672
0.103435
0.111936
0.120284
0.128423
0.136317
0.143949
0.151326
0.158461
0.165368
0.172063
0.178558
0.184865
0.190995
0.196955
0.202759
0.208426
0.214
0.219558
0.22524
0.231281
0.238046
0.246078
0.256187
0.269702
0.289094
0.319224
0.368535
0.444228
0.52453
0.558291
0.0432871
0.0465176
0.0509017
0.056259
0.0624515
0.0693733
0.0769193
0.0849724
0.0934011
0.102059
0.11079
0.119451
0.127941
0.136196
0.144181
0.151896
0.159352
0.166563
0.173544
0.180306
0.186856
0.193196
0.19932
0.205219
0.210878
0.216289
0.221458
0.226439
0.23136
0.236479
0.242234
0.249285
0.258529
0.27135
0.290271
0.320223
0.369713
0.445642
0.525418
0.558442
0.0511766
0.0543273
0.0586068
0.0638697
0.0700057
0.0769193
0.0845174
0.0926989
0.101343
0.110296
0.11936
0.128325
0.137062
0.145509
0.153659
0.161529
0.169138
0.176507
0.18365
0.190579
0.197292
0.203782
0.210024
0.215982
0.221604
0.226828
0.2316
0.235905
0.239831
0.243651
0.247921
0.253539
0.261558
0.273442
0.29176
0.321512
0.371256
0.447523
0.526623
0.558645
0.0593757
0.0624698
0.0666816
0.0718942
0.0780158
0.0849724
0.0926989
0.101131
0.110185
0.119718
0.129452
0.138966
0.148112
0.156885
0.165323
0.173472
0.181368
0.189044
0.19652
0.203808
0.210904
0.217788
0.224418
0.23072
0.236587
0.241871
0.246395
0.249999
0.252629
0.254519
0.256405
0.259741
0.265889
0.276423
0.293936
0.323469
0.373593
0.450311
0.528366
0.558928
0.0677767
0.0708386
0.0750128
0.0802056
0.0863492
0.0934011
0.101343
0.110185
0.119955
0.130639
0.141878
0.15239
0.16223
0.171562
0.180517
0.189188
0.197646
0.205944
0.214119
0.222192
0.230166
0.238015
0.245679
0.253039
0.259905
0.265987
0.270877
0.274061
0.275049
0.273738
0.271058
0.269967
0.272711
0.281015
0.297322
0.326576
0.377228
0.454472
0.530827
0.559305
0.0762746
0.0793194
0.0834757
0.0886718
0.0948671
0.102059
0.110296
0.119718
0.130639
0.143742
0.159988
0.172412
0.183531
0.193982
0.204061
0.213953
0.223795
0.233695
0.243749
0.254032
0.264599
0.275476
0.286641
0.297974
0.309182
0.31967
0.328373
0.333565
0.33282
0.323747
0.306744
0.291002
0.284739
0.288378
0.302571
0.331361
0.382665
0.460405
0.534073
0.559765
0.0847624
0.0878009
0.0919536
0.0971693
0.103435
0.11079
0.11936
0.129452
0.141878
0.159989
0.504138
0.517785
0.513745
0.512234
0.512394
0.513616
0.515563
0.518012
0.520799
0.523787
0.526859
0.529898
0.532788
0.535396
0.537558
0.53904
0.539441
0.537895
0.532021
0.51374
0.314868
0.301421
0.29463
0.296462
0.309347
0.338025
0.390226
0.468301
0.537998
0.560275
0.0931497
0.0961903
0.10035
0.105594
0.111936
0.119451
0.128325
0.138966
0.15239
0.172412
0.517785
0.559468
0.560476
0.560264
0.56018
0.560205
0.560307
0.560456
0.560634
0.560823
0.56101
0.561186
0.561343
0.561473
0.561569
0.561621
0.561608
0.561481
0.561095
0.560054
0.323962
0.310429
0.303692
0.304922
0.317382
0.346574
0.400008
0.47805
0.542317
0.560785
0.10137
0.104419
0.108591
0.113869
0.120284
0.127941
0.137062
0.148112
0.16223
0.183531
0.513745
0.560476
0.562401
0.562439
0.562434
0.562433
0.562435
0.56244
0.562445
0.562452
0.562458
0.562463
0.562468
0.562472
0.562475
0.562476
0.562475
0.562471
0.562459
0.562434
0.333759
0.319436
0.312721
0.313891
0.326624
0.356996
0.411956
0.489234
0.546652
0.561246
0.109378
0.112442
0.116632
0.121943
0.128423
0.136196
0.145509
0.156885
0.171562
0.193982
0.512234
0.560264
0.562439
0.562497
0.562499
0.562498
0.562498
0.562499
0.562499
0.562499
0.562499
0.562499
0.562499
0.562499
0.562499
0.562499
0.562499
0.562499
0.562499
0.562499
0.344261
0.328882
0.322149
0.323591
0.337168
0.369292
0.425858
0.501196
0.550639
0.561628
0.117153
0.120235
0.124444
0.129785
0.136317
0.144181
0.153659
0.165323
0.180517
0.204061
0.512393
0.56018
0.562434
0.562499
0.5625
0.5625
0.5625
0.5625
0.5625
0.5625
0.5625
0.5625
0.5625
0.5625
0.5625
0.5625
0.5625
0.5625
0.5625
0.5625
0.355532
0.339012
0.332278
0.334273
0.349175
0.383411
0.441339
0.513147
0.554022
0.56192
0.124685
0.127788
0.132014
0.137376
0.143949
0.151896
0.161529
0.173472
0.189188
0.213954
0.513616
0.560205
0.562433
0.562498
0.5625
0.5625
0.5625
0.5625
0.5625
0.5625
0.5625
0.5625
0.5625
0.5625
0.5625
0.5625
0.5625
0.5625
0.5625
0.5625
0.367687
0.350037
0.343379
0.346193
0.362802
0.399121
0.457827
0.524325
0.556692
0.56213
0.131972
0.135095
0.139335
0.144715
0.151326
0.159352
0.169138
0.181368
0.197646
0.223795
0.515563
0.560306
0.562435
0.562498
0.5625
0.5625
0.5625
0.5625
0.5625
0.5625
0.5625
0.5625
0.5625
0.5625
0.5625
0.5625
0.5625
0.5625
0.5625
0.5625
0.380847
0.362165
0.355707
0.359581
0.378084
0.415941
0.474573
0.53414
0.558668
0.562272
0.139025
0.142169
0.146421
0.151816
0.158461
0.166563
0.176507
0.189044
0.205944
0.233696
0.518012
0.560456
0.56244
0.562499
0.5625
0.5625
0.5625
0.5625
0.5625
0.5625
0.5625
0.5625
0.5625
0.5625
0.5625
0.5625
0.5625
0.5625
0.5625
0.5625
0.39508
0.375562
0.369459
0.374551
0.394791
0.433492
0.490759
0.542259
0.560051
0.562363
0.145866
0.14903
0.153291
0.158695
0.165368
0.173544
0.18365
0.19652
0.214119
0.243749
0.520798
0.560634
0.562445
0.562499
0.5625
0.5625
0.5625
0.5625
0.5625
0.5625
0.5625
0.5625
0.5625
0.5625
0.5625
0.5625
0.5625
0.5625
0.5625
0.5625
0.4103
0.390265
0.384675
0.390959
0.412257
0.451243
0.505657
0.548598
0.560975
0.562419
0.15252
0.155703
0.159966
0.165371
0.172063
0.180306
0.190579
0.203808
0.222192
0.254033
0.523787
0.560823
0.562452
0.562499
0.5625
0.5625
0.5625
0.5625
0.5625
0.5625
0.5625
0.5625
0.5625
0.5625
0.5625
0.5625
0.5625
0.5625
0.5625
0.5625
0.426208
0.406055
0.401088
0.408236
0.429855
0.46856
0.518789
0.55327
0.561569
0.562453
0.159019
0.162216
0.166472
0.171863
0.178558
0.186856
0.197292
0.210904
0.230166
0.2646
0.526859
0.56101
0.562458
0.562499
0.5625
0.5625
0.5625
0.5625
0.5625
0.5625
0.5625
0.5625
0.5625
0.5625
0.5625
0.5625
0.5625
0.5625
0.5625
0.5625
0.442589
0.422454
0.41804
0.425608
0.447262
0.484866
0.52994
0.556532
0.561937
0.562473
0.165395
0.1686
0.172834
0.178191
0.184865
0.193196
0.203782
0.217788
0.238015
0.275477
0.529898
0.561186
0.562463
0.562499
0.5625
0.5625
0.5625
0.5625
0.5625
0.5625
0.5625
0.5625
0.5625
0.5625
0.5625
0.5625
0.5625
0.5625
0.5625
0.5625
0.459151
0.439239
0.435133
0.442814
0.464097
0.499771
0.539078
0.558708
0.562161
0.562484
0.171686
0.174889
0.179081
0.184375
0.190995
0.19932
0.210024
0.224418
0.245679
0.286641
0.532788
0.561343
0.562468
0.562499
0.5625
0.5625
0.5625
0.5625
0.5625
0.5625
0.5625
0.5625
0.5625
0.5625
0.5625
0.5625
0.5625
0.5625
0.5625
0.5625
0.475434
0.456114
0.452115
0.459581
0.480036
0.513094
0.546254
0.560112
0.562295
0.562491
0.177934
0.18112
0.185244
0.190439
0.196955
0.205219
0.215982
0.23072
0.253039
0.297974
0.535396
0.561473
0.562472
0.562499
0.5625
0.5625
0.5625
0.5625
0.5625
0.5625
0.5625
0.5625
0.5625
0.5625
0.5625
0.5625
0.5625
0.5625
0.5625
0.5625
0.490993
0.472717
0.468713
0.475697
0.49492
0.524789
0.551603
0.560998
0.562374
0.562495
0.184191
0.187341
0.191364
0.196411
0.202759
0.210878
0.221604
0.236587
0.259905
0.309182
0.537558
0.561569
0.562475
0.562499
0.5625
0.5625
0.5625
0.5625
0.5625
0.5625
0.5625
0.5625
0.5625
0.5625
0.5625
0.5625
0.5625
0.5625
0.5625
0.5625
0.505573
0.488806
0.484788
0.491108
0.508727
0.534827
0.555379
0.56155
0.562421
0.562497
0.190516
0.193608
0.197491
0.202331
0.208427
0.216289
0.226828
0.241871
0.265987
0.31967
0.53904
0.561621
0.562476
0.562499
0.5625
0.5625
0.5625
0.5625
0.5625
0.5625
0.5625
0.5625
0.5625
0.5625
0.5625
0.5625
0.5625
0.5625
0.5625
0.5625
0.519158
0.504361
0.500406
0.505899
0.521472
0.543159
0.557932
0.561893
0.562449
0.562498
0.196988
0.199994
0.203691
0.208256
0.214
0.221459
0.2316
0.246396
0.270877
0.328373
0.539441
0.561608
0.562475
0.562499
0.5625
0.5625
0.5625
0.5625
0.5625
0.5625
0.5625
0.5625
0.5625
0.5625
0.5625
0.5625
0.5625
0.5625
0.5625
0.5625
0.531793
0.51948
0.515701
0.52013
0.533056
0.549749
0.55962
0.562109
0.562466
0.562499
0.203704
0.206595
0.21006
0.214277
0.219558
0.226439
0.235905
0.249999
0.274061
0.333565
0.537895
0.561481
0.562471
0.562499
0.5625
0.5625
0.5625
0.5625
0.5625
0.5625
0.5625
0.5625
0.5625
0.5625
0.5625
0.5625
0.5625
0.5625
0.5625
0.5625
0.543191
0.53395
0.530502
0.533546
0.543159
0.55465
0.560727
0.562247
0.562477
0.562499
0.210801
0.213547
0.216734
0.220534
0.22524
0.23136
0.239831
0.252629
0.275049
0.33282
0.532021
0.561095
0.562459
0.562499
0.5625
0.5625
0.5625
0.5625
0.5625
0.5625
0.5625
0.5625
0.5625
0.5625
0.5625
0.5625
0.5625
0.5625
0.5625
0.5625
0.552422
0.546638
0.54378
0.545274
0.551251
0.558043
0.561448
0.562338
0.562484
0.562499
0.218463
0.221037
0.223912
0.22724
0.231281
0.236479
0.243651
0.254519
0.273738
0.323747
0.51374
0.560054
0.562434
0.562499
0.5625
0.5625
0.5625
0.5625
0.5625
0.5625
0.5625
0.5625
0.5625
0.5625
0.5625
0.5625
0.5625
0.5625
0.5625
0.5625
0.558467
0.555675
0.553704
0.553995
0.556866
0.560199
0.561911
0.5624
0.562489
0.562499
0.226962
0.229346
0.231887
0.234715
0.238046
0.242235
0.247921
0.256405
0.271058
0.306744
0.314869
0.323962
0.333759
0.344261
0.355532
0.367686
0.380847
0.395079
0.4103
0.426207
0.442589
0.459151
0.475434
0.490992
0.505572
0.519157
0.531793
0.543191
0.552422
0.558467
0.560786
0.560228
0.559245
0.559067
0.560085
0.561433
0.562195
0.56244
0.562492
0.5625
0.236714
0.238902
0.241109
0.243445
0.246078
0.249285
0.253539
0.259742
0.269967
0.291002
0.301421
0.310429
0.319436
0.328882
0.339012
0.350036
0.362165
0.375562
0.390265
0.406055
0.422453
0.439239
0.456113
0.472717
0.488806
0.504361
0.51948
0.533949
0.546638
0.555674
0.560228
0.561436
0.561409
0.561316
0.561598
0.562056
0.562349
0.562464
0.562495
0.5625
0.248402
0.250403
0.252301
0.254183
0.256187
0.258529
0.261558
0.265889
0.272712
0.284739
0.29463
0.303692
0.312721
0.322149
0.332278
0.343379
0.355707
0.369458
0.384674
0.401088
0.418039
0.435133
0.452115
0.468712
0.484788
0.500405
0.515701
0.530501
0.543779
0.553704
0.559245
0.561409
0.561991
0.562098
0.562188
0.56232
0.562426
0.562479
0.562496
0.5625
0.263223
0.265076
0.266715
0.268217
0.269702
0.27135
0.273443
0.276423
0.281015
0.288378
0.296462
0.304922
0.313891
0.323591
0.334273
0.346193
0.359581
0.374551
0.390959
0.408236
0.425608
0.442814
0.459581
0.475696
0.491108
0.505899
0.520129
0.533545
0.545274
0.553994
0.559067
0.561316
0.562098
0.562315
0.56238
0.562426
0.562464
0.562488
0.562497
0.5625
0.283454
0.285249
0.286731
0.287973
0.289095
0.290271
0.291761
0.293936
0.297322
0.302571
0.309348
0.317382
0.326624
0.337168
0.349175
0.362801
0.378084
0.39479
0.412257
0.429855
0.447262
0.464096
0.480036
0.494919
0.508727
0.521472
0.533055
0.543159
0.551251
0.556865
0.560084
0.561598
0.562188
0.56238
0.562441
0.562466
0.562482
0.562493
0.562498
0.5625
0.31361
0.315542
0.317054
0.318236
0.319225
0.320223
0.321512
0.323469
0.326576
0.331361
0.338025
0.346574
0.356996
0.369292
0.383411
0.399121
0.415941
0.433492
0.451242
0.468559
0.484866
0.49977
0.513094
0.524789
0.534827
0.543159
0.549748
0.55465
0.558043
0.560198
0.561432
0.562056
0.56232
0.562426
0.562466
0.562482
0.56249
0.562496
0.562499
0.5625
0.361808
0.364176
0.36599
0.367381
0.368536
0.369714
0.371256
0.373593
0.377228
0.382665
0.390226
0.400008
0.411956
0.425858
0.441339
0.457827
0.474573
0.490758
0.505657
0.518788
0.52994
0.539078
0.546254
0.551603
0.555378
0.557932
0.55962
0.560727
0.561448
0.561911
0.562195
0.562349
0.562426
0.562464
0.562482
0.56249
0.562495
0.562497
0.562499
0.5625
0.436624
0.439319
0.441344
0.442898
0.444228
0.445642
0.447523
0.450311
0.454472
0.460405
0.468301
0.47805
0.489234
0.501195
0.513147
0.524324
0.53414
0.542259
0.548597
0.55327
0.556532
0.558708
0.560112
0.560998
0.56155
0.561893
0.562109
0.562247
0.562338
0.5624
0.56244
0.562464
0.562479
0.562488
0.562493
0.562496
0.562497
0.562498
0.562499
0.5625
0.520096
0.521675
0.52284
0.523736
0.52453
0.525418
0.526623
0.528366
0.530827
0.534073
0.537998
0.542317
0.546652
0.550639
0.554022
0.556692
0.558668
0.560051
0.560975
0.561569
0.561937
0.562161
0.562295
0.562374
0.562421
0.562449
0.562466
0.562477
0.562484
0.562489
0.562492
0.562495
0.562496
0.562497
0.562498
0.562499
0.562499
0.562499
0.5625
0.5625
0.557593
0.557838
0.558019
0.558161
0.558291
0.558442
0.558645
0.558928
0.559305
0.559765
0.560275
0.560784
0.561246
0.561628
0.56192
0.56213
0.562272
0.562363
0.562419
0.562453
0.562473
0.562484
0.562491
0.562495
0.562497
0.562498
0.562499
0.562499
0.562499
0.562499
0.5625
0.5625
0.5625
0.5625
0.5625
0.5625
0.5625
0.5625
0.5625
0.5625
0.00368913
0.00608367
0.009949
0.0150985
0.021263
0.0281795
0.0356228
0.0434027
0.0513648
0.0593888
0.0673878
0.0752879
0.0830228
0.0905453
0.0978294
0.104867
0.111668
0.118244
0.124609
0.130786
0.136799
0.142676
0.148451
0.154157
0.159837
0.165539
0.171324
0.177268
0.183466
0.190047
0.197182
0.205106
0.214151
0.224792
0.23777
0.254562
0.279682
0.327952
0.426052
0.53492
0.00608301
0.00878915
0.0128656
0.0181078
0.0242851
0.0311745
0.0385751
0.0463136
0.0542452
0.0622552
0.0702568
0.0781666
0.0859143
0.0934511
0.10075
0.107804
0.114622
0.121212
0.127587
0.133769
0.13978
0.145647
0.151398
0.157064
0.162684
0.168302
0.173975
0.179776
0.185804
0.192189
0.199108
0.206809
0.215634
0.226069
0.238863
0.255491
0.280497
0.328896
0.427415
0.535544
0.00994846
0.0128658
0.0170645
0.0223352
0.0284759
0.0352965
0.0426213
0.0502947
0.0581829
0.0661773
0.0741815
0.0821007
0.0898594
0.0974067
0.104715
0.111779
0.118604
0.125194
0.131563
0.137729
0.143713
0.149534
0.155218
0.16079
0.166283
0.171736
0.177202
0.182753
0.188492
0.194559
0.201146
0.208518
0.217036
0.227203
0.23977
0.256207
0.28106
0.329504
0.428323
0.535973
0.0150987
0.0181077
0.022335
0.0275737
0.0336418
0.0403725
0.0476133
0.0552252
0.0630857
0.0710863
0.0791116
0.0870555
0.0948364
0.102401
0.109724
0.116803
0.123631
0.130217
0.136573
0.142713
0.148653
0.154408
0.159995
0.165432
0.170744
0.175961
0.181131
0.186325
0.191651
0.197263
0.203382
0.210302
0.218413
0.228238
0.240534
0.256753
0.281433
0.329875
0.428941
0.536289
0.0212631
0.0242848
0.0284757
0.0336417
0.0396177
0.0462579
0.0534299
0.0610116
0.0688909
0.0769422
0.0850304
0.093035
0.100867
0.108473
0.115832
0.122934
0.129776
0.136366
0.142714
0.148832
0.154728
0.160413
0.165892
0.171174
0.176269
0.181195
0.185988
0.190714
0.195487
0.200483
0.205963
0.212276
0.219854
0.229248
0.241221
0.2572
0.281699
0.330143
0.429484
0.536595
0.0281795
0.0311742
0.0352962
0.0403724
0.0462579
0.052828
0.0599716
0.0675871
0.0755575
0.0837366
0.0919655
0.100098
0.108035
0.115727
0.123155
0.130307
0.137187
0.143804
0.150169
0.156287
0.162163
0.167798
0.173185
0.178319
0.183188
0.187791
0.192141
0.196289
0.200346
0.204518
0.209128
0.21462
0.221498
0.230347
0.241932
0.257645
0.281973
0.330479
0.430223
0.537018
0.0356228
0.0385748
0.0426211
0.0476132
0.0534299
0.0599716
0.0671559
0.0748932
0.0830625
0.0915043
0.100018
0.108399
0.116535
0.124385
0.13193
0.139177
0.14614
0.15283
0.159258
0.165428
0.171338
0.176979
0.182331
0.187366
0.192048
0.196339
0.200212
0.203678
0.206828
0.209888
0.21328
0.217632
0.223564
0.231705
0.242811
0.258221
0.282396
0.331094
0.43148
0.537698
0.0434026
0.0463134
0.0502947
0.0552252
0.0610116
0.0675872
0.0748932
0.0828618
0.0914002
0.100354
0.109449
0.118296
0.12678
0.134881
0.142623
0.15004
0.157158
0.164
0.170579
0.176897
0.182947
0.188709
0.194148
0.199211
0.203825
0.2079
0.211338
0.214061
0.216081
0.217605
0.219184
0.221842
0.226411
0.233578
0.244057
0.259098
0.283141
0.332233
0.433616
0.538774
0.0513647
0.0542451
0.0581829
0.0630858
0.068891
0.0755576
0.0830625
0.0914002
0.100576
0.110551
0.12098
0.130695
0.139732
0.148229
0.156295
0.164007
0.171418
0.178564
0.185464
0.192126
0.198538
0.204672
0.210475
0.215865
0.220724
0.224885
0.22813
0.230202
0.230873
0.230147
0.228659
0.228372
0.230682
0.236353
0.245933
0.260474
0.284398
0.334158
0.437005
0.54035
0.0593888
0.0622552
0.0661774
0.0710864
0.0769423
0.0837368
0.0915044
0.100355
0.110551
0.122692
0.137579
0.148829
0.158753
0.167925
0.176603
0.184931
0.193006
0.200889
0.208622
0.216226
0.223701
0.231021
0.23812
0.244883
0.25112
0.256544
0.260724
0.263005
0.262411
0.257762
0.248873
0.240591
0.237759
0.240631
0.24875
0.262547
0.28635
0.337131
0.441991
0.542462
0.0673877
0.0702568
0.0741816
0.0791118
0.0850305
0.0919657
0.100018
0.109449
0.12098
0.137579
0.488471
0.502612
0.495799
0.492068
0.4904
0.49004
0.490581
0.491769
0.493418
0.49538
0.497521
0.499709
0.501797
0.503603
0.504875
0.50522
0.503914
0.499353
0.487088
0.452663
0.254924
0.246893
0.243589
0.245258
0.252265
0.265314
0.289105
0.341368
0.448833
0.545047
0.0752879
0.0781667
0.0821009
0.0870556
0.0930351
0.100098
0.108399
0.118297
0.130695
0.148829
0.502612
0.557323
0.558865
0.558309
0.557943
0.557762
0.55772
0.55778
0.557912
0.558092
0.558298
0.558509
0.558706
0.558868
0.558965
0.558956
0.558758
0.558185
0.556729
0.552959
0.261475
0.252311
0.248857
0.249967
0.256225
0.268647
0.292676
0.34703
0.457646
0.547938
0.0830227
0.0859144
0.0898596
0.0948366
0.100867
0.108035
0.116535
0.12678
0.139732
0.158753
0.495799
0.558865
0.562288
0.562361
0.562342
0.562329
0.562324
0.562324
0.562328
0.562335
0.562344
0.562353
0.562361
0.562368
0.562372
0.562372
0.562363
0.56234
0.562286
0.562172
0.268002
0.257544
0.253944
0.254735
0.260461
0.272395
0.297033
0.354263
0.468365
0.550904
0.0905453
0.0934513
0.0974068
0.102402
0.108473
0.115727
0.124385
0.134881
0.148229
0.167925
0.492068
0.558309
0.562361
0.562493
0.562496
0.562495
0.562495
0.562495
0.562495
0.562495
0.562496
0.562496
0.562496
0.562496
0.562496
0.562496
0.562496
0.562496
0.562494
0.562492
0.274537
0.262775
0.259001
0.259556
0.264852
0.276441
0.302176
0.363253
0.480701
0.553702
0.0978294
0.10075
0.104715
0.109725
0.115832
0.123155
0.13193
0.142623
0.156295
0.176603
0.4904
0.557943
0.562342
0.562496
0.5625
0.5625
0.5625
0.5625
0.5625
0.5625
0.5625
0.5625
0.5625
0.5625
0.5625
0.5625
0.5625
0.5625
0.5625
0.5625
0.281077
0.268047
0.264072
0.264396
0.269296
0.280729
0.308162
0.374257
0.4941
0.556138
0.104867
0.107804
0.111779
0.116803
0.122934
0.130307
0.139177
0.15004
0.164007
0.184932
0.490039
0.557762
0.562329
0.562495
0.5625
0.5625
0.5625
0.5625
0.5625
0.5625
0.5625
0.5625
0.5625
0.5625
0.5625
0.5625
0.5625
0.5625
0.5625
0.5625
0.287606
0.273353
0.26914
0.269201
0.273713
0.285341
0.315121
0.387609
0.507755
0.558106
0.111668
0.114622
0.118604
0.123631
0.129776
0.137187
0.14614
0.157158
0.171418
0.193006
0.490581
0.55772
0.562324
0.562495
0.5625
0.5625
0.5625
0.5625
0.5625
0.5625
0.5625
0.5625
0.5625
0.5625
0.5625
0.5625
0.5625
0.5625
0.5625
0.5625
0.294109
0.278659
0.274155
0.273898
0.278073
0.290513
0.323262
0.403641
0.520721
0.559588
0.118244
0.121212
0.125194
0.130217
0.136366
0.143805
0.15283
0.164001
0.178564
0.200889
0.491769
0.55778
0.562324
0.562495
0.5625
0.5625
0.5625
0.5625
0.5625
0.5625
0.5625
0.5625
0.5625
0.5625
0.5625
0.5625
0.5625
0.5625
0.5625
0.5625
0.30059
0.283932
0.279063
0.278444
0.282462
0.296358
0.332887
0.422497
0.532133
0.560637
0.12461
0.127587
0.131563
0.136573
0.142714
0.150169
0.159258
0.170579
0.185464
0.208622
0.493418
0.557912
0.562328
0.562495
0.5625
0.5625
0.5625
0.5625
0.5625
0.5625
0.5625
0.5625
0.5625
0.5625
0.5625
0.5625
0.5625
0.5625
0.5625
0.5625
0.30712
0.289178
0.283852
0.282885
0.287232
0.303037
0.344425
0.443819
0.541429
0.561341
0.130786
0.133769
0.137729
0.142713
0.148832
0.156287
0.165428
0.176897
0.192126
0.216226
0.495379
0.558092
0.562335
0.562495
0.5625
0.5625
0.5625
0.5625
0.5625
0.5625
0.5625
0.5625
0.5625
0.5625
0.5625
0.5625
0.5625
0.5625
0.5625
0.5625
0.313881
0.294524
0.288645
0.287518
0.292721
0.310794
0.358424
0.466462
0.54845
0.561793
0.136799
0.13978
0.143713
0.148653
0.154728
0.162163
0.171338
0.182947
0.198538
0.223702
0.497521
0.558298
0.562344
0.562496
0.5625
0.5625
0.5625
0.5625
0.5625
0.5625
0.5625
0.5625
0.5625
0.5625
0.5625
0.5625
0.5625
0.5625
0.5625
0.5625
0.321004
0.30029
0.293852
0.292815
0.299073
0.319959
0.375472
0.488582
0.553405
0.562073
0.142676
0.145647
0.149535
0.154408
0.160413
0.167798
0.176979
0.188709
0.204672
0.231021
0.499709
0.558509
0.562353
0.562496
0.5625
0.5625
0.5625
0.5625
0.5625
0.5625
0.5625
0.5625
0.5625
0.5625
0.5625
0.5625
0.5625
0.5625
0.5625
0.5625
0.32863
0.306657
0.299752
0.29895
0.306521
0.33097
0.395956
0.508266
0.556712
0.562243
0.148451
0.151398
0.155218
0.159995
0.165892
0.173186
0.182331
0.194148
0.210475
0.23812
0.501797
0.558706
0.562361
0.562496
0.5625
0.5625
0.5625
0.5625
0.5625
0.5625
0.5625
0.5625
0.5625
0.5625
0.5625
0.5625
0.5625
0.5625
0.5625
0.5625
0.337036
0.31387
0.306573
0.306182
0.315414
0.344374
0.419652
0.524269
0.558833
0.562343
0.154157
0.157064
0.160791
0.165433
0.171174
0.178319
0.187366
0.199211
0.215866
0.244883
0.503603
0.558868
0.562368
0.562496
0.5625
0.5625
0.5625
0.5625
0.5625
0.5625
0.5625
0.5625
0.5625
0.5625
0.5625
0.5625
0.5625
0.5625
0.5625
0.5625
0.34671
0.322361
0.314716
0.314922
0.326242
0.360798
0.445312
0.536302
0.56016
0.562403
0.159837
0.162684
0.166283
0.170744
0.176269
0.183188
0.192048
0.203825
0.220724
0.25112
0.504875
0.558965
0.562372
0.562496
0.5625
0.5625
0.5625
0.5625
0.5625
0.5625
0.5625
0.5625
0.5625
0.5625
0.5625
0.5625
0.5625
0.5625
0.5625
0.5625
0.358489
0.332855
0.324839
0.325805
0.339681
0.380819
0.470777
0.544811
0.56098
0.562438
0.165539
0.168302
0.171736
0.175961
0.181195
0.187791
0.196339
0.2079
0.224885
0.256544
0.50522
0.558956
0.562372
0.562496
0.5625
0.5625
0.5625
0.5625
0.5625
0.5625
0.5625
0.5625
0.5625
0.5625
0.5625
0.5625
0.5625
0.5625
0.5625
0.5625
0.373781
0.346569
0.338018
0.339801
0.356653
0.404693
0.493832
0.550589
0.561487
0.562458
0.171324
0.173975
0.177202
0.181131
0.185988
0.192142
0.200212
0.211338
0.228131
0.260724
0.503914
0.558758
0.562363
0.562496
0.5625
0.5625
0.5625
0.5625
0.5625
0.5625
0.5625
0.5625
0.5625
0.5625
0.5625
0.5625
0.5625
0.5625
0.5625
0.5625
0.394842
0.365543
0.356008
0.358413
0.37836
0.431995
0.513133
0.554449
0.561804
0.562471
0.177268
0.179777
0.182754
0.186325
0.190714
0.196289
0.203678
0.214062
0.230203
0.263006
0.499353
0.558185
0.56234
0.562496
0.5625
0.5625
0.5625
0.5625
0.5625
0.5625
0.5625
0.5625
0.5625
0.5625
0.5625
0.5625
0.5625
0.5625
0.5625
0.5625
0.424716
0.393022
0.381589
0.383862
0.40617
0.461381
0.528409
0.557045
0.562009
0.562479
0.183466
0.185804
0.188493
0.191651
0.195487
0.200346
0.206828
0.216081
0.230873
0.262411
0.487088
0.556729
0.562286
0.562494
0.5625
0.5625
0.5625
0.5625
0.5625
0.5625
0.5625
0.5625
0.5625
0.5625
0.5625
0.5625
0.5625
0.5625
0.5625
0.5625
0.465246
0.432841
0.418244
0.418694
0.440796
0.490646
0.540066
0.558836
0.562148
0.562484
0.190047
0.192189
0.194559
0.197263
0.200483
0.204518
0.209888
0.217605
0.230147
0.257762
0.452663
0.552959
0.562172
0.562492
0.5625
0.5625
0.5625
0.5625
0.5625
0.5625
0.5625
0.5625
0.5625
0.5625
0.5625
0.5625
0.5625
0.5625
0.5625
0.5625
0.511002
0.483954
0.466363
0.462861
0.480013
0.517009
0.548705
0.560113
0.562248
0.562487
0.197182
0.199109
0.201146
0.203382
0.205963
0.209128
0.21328
0.219185
0.228659
0.248873
0.254925
0.261475
0.268002
0.274537
0.281077
0.287606
0.294109
0.30059
0.30712
0.313881
0.321004
0.328629
0.337035
0.34671
0.358489
0.37378
0.394842
0.424715
0.465244
0.511
0.537044
0.528704
0.514365
0.507854
0.516579
0.537712
0.554801
0.561025
0.56232
0.562489
0.205106
0.20681
0.208518
0.210302
0.212276
0.21462
0.217632
0.221843
0.228372
0.240591
0.246893
0.252311
0.257544
0.262775
0.268048
0.273354
0.278659
0.283932
0.289178
0.294524
0.30029
0.306657
0.31387
0.322361
0.332855
0.346569
0.365543
0.393021
0.43284
0.483953
0.528703
0.544735
0.543211
0.539424
0.542133
0.551153
0.55864
0.561616
0.562371
0.562491
0.214151
0.215634
0.217036
0.218413
0.219854
0.221498
0.223564
0.226411
0.230682
0.237759
0.243589
0.248857
0.253944
0.259002
0.264072
0.26914
0.274155
0.279063
0.283852
0.288646
0.293853
0.299752
0.306573
0.314715
0.324839
0.338017
0.356008
0.381588
0.418242
0.466361
0.514364
0.54321
0.552681
0.553896
0.55498
0.557933
0.560639
0.561981
0.562408
0.562492
0.224792
0.22607
0.227203
0.228238
0.229248
0.230348
0.231706
0.233579
0.236354
0.240631
0.245258
0.249967
0.254736
0.259556
0.264397
0.269201
0.273898
0.278444
0.282885
0.287518
0.292815
0.29895
0.306181
0.314922
0.325804
0.339801
0.358412
0.383861
0.418692
0.462859
0.507853
0.539424
0.553896
0.558384
0.559657
0.560665
0.561615
0.5622
0.562435
0.562493
0.23777
0.238863
0.239771
0.240534
0.241221
0.241932
0.242811
0.244057
0.245933
0.24875
0.252265
0.256225
0.260461
0.264852
0.269296
0.273714
0.278073
0.282462
0.287233
0.292722
0.299073
0.306521
0.315414
0.326242
0.339681
0.356652
0.378359
0.406169
0.440794
0.480011
0.516578
0.542133
0.554979
0.559657
0.561111
0.561689
0.56207
0.562327
0.562454
0.562494
0.254562
0.255492
0.256207
0.256754
0.2572
0.257646
0.258222
0.259098
0.260475
0.262547
0.265314
0.268647
0.272396
0.276441
0.280729
0.285341
0.290513
0.296358
0.303037
0.310794
0.319959
0.33097
0.344373
0.360797
0.380818
0.404692
0.431994
0.46138
0.490645
0.517008
0.537711
0.551152
0.557933
0.560665
0.561689
0.562083
0.562277
0.562398
0.562467
0.562495
0.279682
0.280497
0.281061
0.281433
0.2817
0.281973
0.282396
0.283141
0.284398
0.28635
0.289105
0.292676
0.297033
0.302176
0.308163
0.315122
0.323262
0.332887
0.344425
0.358424
0.375471
0.395956
0.419651
0.445311
0.470776
0.493831
0.513133
0.528409
0.540066
0.548705
0.554801
0.55864
0.560638
0.561615
0.56207
0.562277
0.56238
0.56244
0.562477
0.562495
0.327952
0.328896
0.329504
0.329875
0.330143
0.330479
0.331095
0.332233
0.334158
0.337131
0.341368
0.34703
0.354263
0.363253
0.374257
0.387609
0.403641
0.422497
0.443818
0.466461
0.488582
0.508265
0.524269
0.536302
0.54481
0.550589
0.554449
0.557045
0.558836
0.560113
0.561025
0.561616
0.561981
0.5622
0.562327
0.562398
0.56244
0.562467
0.562485
0.562496
0.426052
0.427415
0.428323
0.428942
0.429485
0.430223
0.43148
0.433616
0.437005
0.441991
0.448833
0.457646
0.468364
0.4807
0.4941
0.507755
0.52072
0.532133
0.541428
0.54845
0.553405
0.556712
0.558833
0.56016
0.56098
0.561487
0.561804
0.562009
0.562148
0.562248
0.56232
0.562371
0.562408
0.562435
0.562454
0.562467
0.562477
0.562485
0.562492
0.562497
0.53492
0.535544
0.535973
0.536289
0.536595
0.537018
0.537698
0.538774
0.54035
0.542462
0.545047
0.547938
0.550904
0.553702
0.556138
0.558106
0.559588
0.560637
0.561341
0.561793
0.562073
0.562243
0.562343
0.562403
0.562438
0.562458
0.562471
0.562479
0.562484
0.562487
0.562489
0.562491
0.562492
0.562493
0.562494
0.562495
0.562495
0.562496
0.562497
0.562499
0.000414127
0.00142877
0.00395298
0.00809854
0.0135539
0.019968
0.0270405
0.0345272
0.0422346
0.0500137
0.0577565
0.065392
0.0728708
0.0801496
0.0872007
0.0940118
0.100584
0.106932
0.11307
0.119016
0.124794
0.130429
0.135949
0.141387
0.146779
0.152169
0.157609
0.163163
0.168913
0.174963
0.18145
0.188557
0.196545
0.205811
0.217078
0.231952
0.25459
0.295954
0.382529
0.512685
0.00142817
0.00310513
0.00622022
0.0107028
0.0163115
0.0227789
0.0298564
0.037329
0.0450196
0.0527886
0.0605324
0.0681814
0.075678
0.0829746
0.0900418
0.0968666
0.10345
0.109806
0.115946
0.121888
0.127653
0.133263
0.138745
0.144127
0.149442
0.154732
0.160044
0.165443
0.171011
0.176855
0.183121
0.19
0.197762
0.206812
0.217879
0.232577
0.255094
0.29648
0.383361
0.513326
0.00395207
0.00622037
0.00978195
0.0145101
0.0202177
0.0266969
0.0337446
0.0411763
0.0488324
0.056582
0.0643259
0.0719884
0.0795
0.0868087
0.0938833
0.100711
0.107293
0.11364
0.119762
0.125673
0.131394
0.136941
0.142338
0.147608
0.152779
0.157889
0.162982
0.168124
0.173401
0.178931
0.184872
0.191432
0.198896
0.20768
0.218514
0.233015
0.255387
0.29675
0.383832
0.513717
0.00809868
0.0107032
0.0145102
0.0193669
0.0251088
0.0315646
0.0385653
0.0459513
0.0535788
0.061325
0.0690906
0.0767815
0.0843175
0.0916425
0.0987246
0.105552
0.112129
0.118457
0.124548
0.130414
0.136069
0.141527
0.146805
0.151919
0.156891
0.16175
0.166539
0.171323
0.176195
0.181287
0.186783
0.192919
0.200001