/*--------------------------------*- C++ -*----------------------------------*\
| =========                 |                                                 |
| \\      /  F ield         | OpenFOAM: The Open Source CFD Toolbox           |
|  \\    /   O peration     | Version:  2.1.0                                 |
|   \\  /    A nd           | Web:      www.OpenFOAM.org                      |
|    \\/     M anipulation  |                                                 |
\*---------------------------------------------------------------------------*/
FoamFile
{
    version     2.0;
    format      ascii;
    class       volScalarField;
    location    "28105";
    object      kr_w;
}
// * * * * * * * * * * * * * * * * * * * * * * * * * * * * * * * * * * * * * //

dimensions      [0 0 0 0 0 0 0];

internalField   nonuniform List<scalar> 
8000
(
0.418883
0.397571
0.372115
0.345962
0.320846
0.2975
0.276147
0.256768
0.239228
0.223361
0.209019
0.196068
0.184372
0.173797
0.164212
0.155498
0.147551
0.140273
0.133572
0.127367
0.121587
0.116166
0.111047
0.106177
0.101502
0.0969715
0.0925301
0.0881175
0.0836638
0.0790835
0.0742668
0.0690639
0.0632589
0.0565257
0.0483504
0.0380287
0.025237
0.0118715
0.00297324
0.000304477
0.397573
0.378862
0.356343
0.332866
0.309973
0.288389
0.2684
0.250064
0.233316
0.218058
0.204198
0.191634
0.180256
0.169944
0.160582
0.152059
0.14428
0.137151
0.130584
0.124502
0.118838
0.11353
0.108525
0.103772
0.0992218
0.0948258
0.090531
0.086278
0.0819957
0.077596
0.0729638
0.0679427
0.06231
0.0557303
0.0476768
0.0374347
0.0247062
0.0115016
0.00284736
0.000289067
0.372116
0.356343
0.337116
0.316682
0.296356
0.276843
0.258482
0.2414
0.225614
0.211108
0.197848
0.185775
0.174803
0.164835
0.155769
0.147507
0.139962
0.133043
0.126668
0.120766
0.115273
0.110137
0.105305
0.100734
0.0963785
0.0921927
0.088126
0.0841188
0.0800967
0.0759645
0.0715973
0.0668275
0.0614218
0.0550346
0.0471269
0.0369749
0.0243052
0.0112279
0.00275534
0.000277668
0.345963
0.332867
0.316682
0.299124
0.281294
0.263841
0.247128
0.231331
0.216549
0.202844
0.190234
0.178699
0.168184
0.15861
0.149889
0.14194
0.134676
0.12801
0.121868
0.116186
0.110906
0.105981
0.101367
0.0970255
0.092918
0.0890042
0.0852371
0.0815569
0.0778846
0.0741138
0.0701031
0.0656656
0.0605521
0.0544037
0.0466699
0.0366189
0.0240011
0.0110203
0.00268506
0.000268757
0.320846
0.309974
0.296356
0.281294
0.265684
0.250103
0.234901
0.220306
0.206482
0.193548
0.181572
0.170574
0.160525
0.151365
0.143022
0.135416
0.128459
0.122072
0.116188
0.110747
0.105702
0.10101
0.0966365
0.0925518
0.088727
0.0851307
0.0817231
0.0784477
0.0752208
0.0719208
0.0683795
0.0643771
0.0596382
0.0537866
0.0462605
0.036323
0.0237505
0.0108444
0.00262311
0.000260569
0.2975
0.288389
0.276843
0.263841
0.250103
0.236116
0.222222
0.208681
0.195696
0.183432
0.172009
0.161497
0.151891
0.143146
0.135191
0.127937
0.121297
0.115198
0.109577
0.104381
0.0995694
0.0951092
0.0909754
0.0871495
0.0836164
0.0803597
0.0773547
0.0745555
0.0718789
0.0691855
0.0662654
0.0628384
0.058586
0.0531085
0.0458344
0.0360262
0.0234969
0.0106589
0.00255413
0.000251131
0.276147
0.2684
0.258482
0.247128
0.234901
0.222222
0.209415
0.196736
0.184408
0.172632
0.161603
0.151472
0.14226
0.133914
0.126335
0.119424
0.113094
0.107271
0.101898
0.0969278
0.0923257
0.088068
0.0841412
0.0805411
0.0772716
0.0743404
0.0717502
0.0694828
0.0674713
0.0655639
0.0634887
0.0608483
0.0572488
0.0522583
0.0452995
0.0356459
0.0231677
0.010415
0.00246127
0.000238413
0.256768
0.250064
0.2414
0.231331
0.220306
0.208681
0.196737
0.184699
0.172773
0.161184
0.150249
0.140332
0.131444
0.123456
0.116225
0.109634
0.103587
0.098009
0.0928445
0.0880511
0.0836004
0.0794774
0.0756803
0.0722217
0.0691297
0.0664467
0.0642233
0.0625006
0.0612693
0.0603979
0.0595395
0.0580474
0.0553842
0.0510675
0.0445277
0.0350745
0.0226752
0.0100588
0.00232815
0.000220706
0.239228
0.233316
0.225614
0.21655
0.206482
0.195696
0.184408
0.172773
0.160908
0.148971
0.137437
0.127486
0.118827
0.111146
0.104223
0.0979073
0.0920889
0.0866894
0.0816517
0.0769366
0.0725202
0.068395
0.064571
0.0610794
0.0579752
0.0553427
0.0533024
0.0520091
0.0516136
0.0521391
0.0532282
0.053677
0.0525539
0.0492788
0.0433484
0.0341824
0.0219242
0.00953936
0.00214276
0.000197196
0.223361
0.218058
0.211108
0.202844
0.193548
0.183432
0.172632
0.161184
0.148971
0.135617
0.120746
0.11047
0.101986
0.0945693
0.0878888
0.081751
0.0760301
0.0706385
0.0655154
0.0606213
0.0559337
0.0514432
0.04716
0.0431243
0.0394191
0.0361904
0.0336746
0.0322404
0.0324433
0.0349938
0.0402019
0.0455712
0.0478674
0.0465217
0.0415714
0.0328434
0.0208332
0.00882281
0.00190268
0.000168522
0.209019
0.204198
0.197848
0.190234
0.181572
0.172009
0.161603
0.150249
0.137437
0.120746
0.00432042
0.00315978
0.00349267
0.00361941
0.003606
0.00350345
0.00334179
0.00314131
0.00291707
0.00268103
0.00244317
0.00221238
0.00199712
0.00180626
0.00165045
0.00154488
0.0015165
0.00162637
0.00205387
0.00349312
0.0376409
0.0419557
0.0442839
0.0436454
0.0393663
0.0310469
0.0193792
0.00791133
0.00161906
0.000136882
0.196068
0.191634
0.185775
0.1787
0.170574
0.161497
0.151472
0.140332
0.127486
0.11047
0.00315979
0.000187002
0.000124448
0.000137584
0.000142806
0.000141212
0.000134951
0.000125684
0.000114703
0.000103025
9.14462e-05
8.05907e-05
7.09548e-05
6.29626e-05
5.70546e-05
5.38648e-05
5.46476e-05
6.24913e-05
8.62183e-05
0.000150608
0.0349318
0.0390235
0.0412
0.0407952
0.036876
0.0288539
0.0176014
0.00684945
0.001315
0.000105385
0.184372
0.180256
0.174803
0.168184
0.160525
0.151892
0.14226
0.131444
0.118827
0.101986
0.00349267
0.000124448
6.02669e-06
3.73847e-06
4.0142e-06
4.07773e-06
3.9435e-06
3.67649e-06
3.33302e-06
2.95842e-06
2.58739e-06
2.24519e-06
1.94956e-06
1.71335e-06
1.54828e-06
1.47143e-06
1.5187e-06
1.77852e-06
2.47701e-06
4.01497e-06
0.0321878
0.03626
0.0383046
0.037942
0.0341688
0.0263409
0.0155788
0.00571207
0.0010182
7.69529e-05
0.173797
0.169944
0.164835
0.15861
0.151365
0.143146
0.133914
0.123456
0.111146
0.0945692
0.00361941
0.000137584
3.73849e-06
1.56454e-07
9.11011e-08
9.40153e-08
9.24452e-08
8.67636e-08
7.86078e-08
6.93805e-08
6.01562e-08
5.16881e-08
4.44629e-08
3.87864e-08
3.48974e-08
3.31335e-08
3.42293e-08
3.9958e-08
5.43602e-08
8.15451e-08
0.0294352
0.0335317
0.035459
0.0350391
0.0312736
0.0235875
0.013416
0.00458451
0.000752386
5.34573e-05
0.164212
0.160582
0.155769
0.149889
0.143022
0.135192
0.126335
0.116225
0.104223
0.0878887
0.003606
0.000142806
4.01422e-06
9.11014e-08
3.36499e-09
1.84591e-09
1.82297e-09
1.72723e-09
1.56939e-09
1.38243e-09
1.19243e-09
1.01737e-09
8.68319e-10
7.51499e-10
6.70916e-10
6.31781e-10
6.45739e-10
7.40623e-10
9.74379e-10
1.37353e-09
0.0266836
0.0307875
0.0325914
0.0320488
0.0282105
0.0206865
0.0112285
0.0035427
0.000532033
3.54919e-05
0.155498
0.152059
0.147507
0.14194
0.135416
0.127937
0.119424
0.109634
0.0979072
0.081751
0.00350345
0.000141212
4.07774e-06
9.40157e-08
1.84592e-09
6.11079e-11
3.1665e-11
2.99021e-11
2.72879e-11
2.40342e-11
2.06573e-11
1.75195e-11
1.48369e-11
1.27216e-11
1.12326e-11
1.04351e-11
1.04801e-11
1.17353e-11
1.49217e-11
2.0055e-11
0.0239345
0.0279999
0.0296592
0.028949
0.0250133
0.017758
0.00913072
0.00263908
0.000361434
2.2645e-05
0.147551
0.14428
0.139962
0.134676
0.128459
0.121297
0.113094
0.103586
0.0920888
0.07603
0.0033418
0.000134952
3.94351e-06
9.24455e-08
1.82298e-09
3.16652e-11
9.52206e-13
4.67917e-13
4.23145e-13
3.72818e-13
3.19488e-13
2.69444e-13
2.26373e-13
1.92034e-13
1.67322e-13
1.52833e-13
1.50271e-13
1.64e-13
2.0194e-13
2.61548e-13
0.0211936
0.0251564
0.0266425
0.0257434
0.0217497
0.0149385
0.00722039
0.00189779
0.000236997
1.39679e-05
0.140273
0.137151
0.133043
0.12801
0.122072
0.115198
0.107271
0.098009
0.0866893
0.0706385
0.00314132
0.000125684
3.6765e-06
8.67639e-08
1.72724e-09
2.99022e-11
4.67917e-13
1.27737e-14
5.52478e-15
4.65479e-15
3.87687e-15
3.13389e-15
2.4798e-15
1.91145e-15
1.51138e-15
1.27007e-15
1.19386e-15
1.3685e-15
1.84159e-15
2.59728e-15
0.0184829
0.0222661
0.0235516
0.0224755
0.0185354
0.0123095
0.00556337
0.00131903
0.000150776
8.38166e-06
0.133572
0.130584
0.126668
0.121868
0.116188
0.109577
0.101898
0.0928444
0.0816517
0.0655154
0.00291708
0.000114704
3.33303e-06
7.86081e-08
1.56939e-09
2.7288e-11
4.23145e-13
5.52478e-15
0
0
0
0
0
0
0
0
0
0
0
0
0.0158497
0.0193718
0.0204397
0.019242
0.0155297
0.00994128
0.00418602
0.000887671
9.36019e-05
4.92561e-06
0.127367
0.124502
0.120766
0.116186
0.110747
0.104381
0.0969278
0.088051
0.0769365
0.0606212
0.00268103
0.000103025
2.95843e-06
6.93807e-08
1.38244e-09
2.40343e-11
3.72879e-13
4.65479e-15
0
0
0
0
0
0
0
0
0
0
0
0
0.0133641
0.016558
0.017412
0.0161916
0.0128298
0.00788232
0.00307842
0.000580627
5.70737e-05
2.85525e-06
0.121587
0.118838
0.115273
0.110906
0.105702
0.0995694
0.0923257
0.0836004
0.0725201
0.0559336
0.00244318
9.14465e-05
2.5874e-06
6.01564e-08
1.19243e-09
2.06574e-11
3.19488e-13
3.87687e-15
0
0
0
0
0
0
0
0
0
0
0
0
0.0110614
0.0139276
0.014608
0.0134531
0.0104486
0.00614635
0.00220924
0.000371552
3.44343e-05
1.64546e-06
0.116166
0.11353
0.110137
0.105981
0.10101
0.0951091
0.088068
0.0794773
0.0683949
0.0514431
0.00221239
8.05909e-05
2.2452e-06
5.16883e-08
1.01737e-09
1.75196e-11
2.69444e-13
3.13389e-15
0
0
0
0
0
0
0
0
0
0
0
0
0.00897185
0.0115124
0.0120789
0.0110314
0.00839078
0.00471424
0.00154224
0.000234455
2.07201e-05
9.50829e-07
0.111047
0.108525
0.105305
0.101367
0.0966365
0.0909754
0.0841411
0.0756802
0.0645709
0.04716
0.00199712
7.0955e-05
1.94957e-06
4.4463e-08
8.68323e-10
1.4837e-11
2.26373e-13
2.4798e-15
0
0
0
0
0
0
0
0
0
0
0
0
0.00712772
0.00933826
0.00983189
0.00892061
0.00664128
0.00354709
0.00104511
0.000146997
1.25364e-05
5.5604e-07
0.106177
0.103772
0.100734
0.0970255
0.0925518
0.0871495
0.0805411
0.0722217
0.0610793
0.0431242
0.00180627
6.29628e-05
1.71335e-06
3.87865e-08
7.51502e-10
1.27217e-11
1.92034e-13
1.91145e-15
0
0
0
0
0
0
0
0
0
0
0
0
0.00554067
0.00742188
0.00786515
0.00709957
0.0051651
0.00260293
0.000689098
9.22057e-05
7.68947e-06
3.32372e-07
0.101502
0.0992218
0.0963785
0.0929179
0.088727
0.0836163
0.0772716
0.0691297
0.0579752
0.039419
0.00165046
5.70547e-05
1.54829e-06
3.48975e-08
6.70919e-10
1.12328e-11
1.67322e-13
1.51138e-15
0
0
0
0
0
0
0
0
0
0
0
0
0.00419346
0.00575405
0.0061542
0.00552951
0.00391852
0.00184761
0.000444986
5.82198e-05
4.81861e-06
2.05162e-07
0.0969715
0.0948258
0.0921926
0.0890042
0.0851307
0.0803597
0.0743403
0.0664466
0.0553426
0.0361903
0.00154488
5.38649e-05
1.47143e-06
3.31336e-08
6.31783e-10
1.04351e-11
1.52833e-13
1.27007e-15
0
0
0
0
0
0
0
0
0
0
0
0
0.00304861
0.00430059
0.00465627
0.00416476
0.00286346
0.00125671
0.000283127
3.71472e-05
3.10302e-06
1.31982e-07
0.0925301
0.090531
0.088126
0.085237
0.0817231
0.0773547
0.0717502
0.0642232
0.0533024
0.0336745
0.0015165
5.46477e-05
1.5187e-06
3.42294e-08
6.45741e-10
1.04801e-11
1.50271e-13
1.19386e-15
0
0
0
0
0
0
0
0
0
0
0
0
0.00207076
0.00302265
0.00333035
0.00297051
0.00197739
0.00081118
0.000177547
2.39335e-05
2.05715e-06
8.90093e-08
0.0881175
0.0862779
0.0841187
0.0815568
0.0784477
0.0745555
0.0694828
0.0625006
0.052009
0.0322404
0.00162637
6.24914e-05
1.77852e-06
3.99581e-08
7.40625e-10
1.17353e-11
1.64e-13
1.3685e-15
0
0
0
0
0
0
0
0
0
0
0
0
0.0012545
0.00191171
0.00216709
0.00194135
0.00125673
0.000491639
0.000108938
1.54619e-05
1.39773e-06
6.29079e-08
0.0836637
0.0819956
0.0800966
0.0778845
0.0752207
0.0718788
0.0674712
0.0612692
0.0516136
0.0324433
0.00205387
8.62184e-05
2.47701e-06
5.43603e-08
9.74381e-10
1.49218e-11
2.0194e-13
1.84159e-15
0
0
0
0
0
0
0
0
0
0
0
0
0.000635646
0.00101918
0.00121396
0.00111168
0.000712169
0.000276162
6.44642e-05
9.87423e-06
9.61202e-07
4.6182e-08
0.0790834
0.0775959
0.0759644
0.0741138
0.0719208
0.0691855
0.0655638
0.0603978
0.0521391
0.0349938
0.00349312
0.000150608
4.01498e-06
8.15452e-08
1.37353e-09
2.00551e-11
2.61548e-13
2.59728e-15
0
0
0
0
0
0
0
0
0
0
0
0
0.000249555
0.000426096
0.00055256
0.000533804
0.000350418
0.000141641
3.60534e-05
6.104e-06
6.60946e-07
3.54186e-08
0.0742667
0.0729637
0.0715972
0.070103
0.0683795
0.0662653
0.0634887
0.0595395
0.0532282
0.0402019
0.0376409
0.0349318
0.0321878
0.0294352
0.0266836
0.0239345
0.0211936
0.0184829
0.0158498
0.0133642
0.0110614
0.0089719
0.00712777
0.00554072
0.0041935
0.00304865
0.00207079
0.00125452
0.000635662
0.000249563
0.000105264
0.000139842
0.000200903
0.000212005
0.000148709
6.54436e-05
1.86582e-05
3.65068e-06
4.61973e-07
2.85242e-08
0.0690638
0.0679426
0.0668274
0.0656655
0.064377
0.0628383
0.0608483
0.0580474
0.053677
0.0455712
0.0419557
0.0390235
0.03626
0.0335317
0.0307875
0.028
0.0251565
0.0222662
0.0193719
0.0165581
0.0139276
0.0115125
0.00933831
0.00742193
0.0057541
0.00430063
0.00302269
0.00191174
0.0010192
0.00042611
0.000139846
6.52582e-05
6.6889e-05
7.26343e-05
5.525e-05
2.71704e-05
9.20626e-06
2.17326e-06
3.2794e-07
2.39458e-08
0.0632589
0.0623099
0.0614217
0.060552
0.0596381
0.0585859
0.0572488
0.0553841
0.0525539
0.0478674
0.0442839
0.0412
0.0383046
0.035459
0.0325914
0.0296593
0.0266426
0.0235516
0.0204397
0.0174121
0.0146081
0.0120789
0.00983195
0.00786521
0.00615425
0.00465632
0.0033304
0.00216713
0.00121399
0.000552577
0.000200911
6.68912e-05
3.11573e-05
2.4573e-05
1.90974e-05
1.0981e-05
4.50174e-06
1.28931e-06
2.35529e-07
2.0791e-08
0.0565257
0.0557302
0.0550345
0.0544036
0.0537866
0.0531085
0.0522582
0.0510675
0.0492787
0.0465217
0.0436454
0.0407952
0.037942
0.0350391
0.0320488
0.028949
0.0257434
0.0224756
0.019242
0.0161917
0.0134532
0.0110315
0.00892067
0.00709962
0.00552956
0.0041648
0.00297055
0.00194139
0.0011117
0.00053382
0.000212012
7.26372e-05
2.45737e-05
1.12876e-05
7.31025e-06
4.54109e-06
2.19622e-06
7.61781e-07
1.70242e-07
1.85075e-08
0.0483503
0.0476767
0.0471268
0.0466698
0.0462605
0.0458343
0.0452995
0.0445277
0.0433483
0.0415714
0.0393663
0.036876
0.0341688
0.0312737
0.0282106
0.0250133
0.0217497
0.0185355
0.0155298
0.0128298
0.0104487
0.00839083
0.00664134
0.00516514
0.00391856
0.0028635
0.00197742
0.00125676
0.000712187
0.000350429
0.000148714
5.52521e-05
1.90981e-05
7.31043e-06
3.58076e-06
2.06717e-06
1.09962e-06
4.51759e-07
1.23563e-07
1.67609e-08
0.0380286
0.0374346
0.0369749
0.0366189
0.0363229
0.0360262
0.0356459
0.0350745
0.0341824
0.0328433
0.0310469
0.0288539
0.0263409
0.0235875
0.0206866
0.017758
0.0149386
0.0123096
0.00994133
0.00788237
0.00614639
0.00471428
0.00354713
0.00260296
0.00184764
0.00125673
0.000811195
0.000491651
0.000276169
0.000141646
6.54458e-05
2.71714e-05
1.09814e-05
4.54123e-06
2.06721e-06
1.08195e-06
5.86423e-07
2.73177e-07
9.02018e-08
1.53465e-08
0.0252369
0.0247061
0.0243052
0.024001
0.0237505
0.0234969
0.0231676
0.0226752
0.0219241
0.0208332
0.0193792
0.0176014
0.0155788
0.013416
0.0112285
0.00913075
0.00722042
0.0055634
0.00418605
0.00307844
0.00220927
0.00154226
0.00104513
0.000689108
0.000444994
0.000283133
0.000177551
0.000108941
6.44658e-05
3.60545e-05
1.86588e-05
9.20656e-06
4.50189e-06
2.19629e-06
1.09965e-06
5.86431e-07
3.26101e-07
1.67582e-07
6.56683e-08
1.40196e-08
0.0118714
0.0115015
0.0112279
0.0110203
0.0108444
0.0106589
0.010415
0.0100588
0.00953936
0.00882281
0.00791134
0.00684946
0.00571208
0.00458453
0.00354272
0.00263909
0.0018978
0.00131904
0.00088768
0.000580634
0.000371557
0.000234459
0.000147
9.22073e-05
5.82209e-05
3.71479e-05
2.3934e-05
1.54622e-05
9.87446e-06
6.10416e-06
3.65078e-06
2.17332e-06
1.28935e-06
7.61802e-07
4.5177e-07
2.73181e-07
1.67583e-07
9.71307e-08
4.53184e-08
1.22353e-08
0.00297323
0.00284736
0.00275534
0.00268506
0.0026231
0.00255413
0.00246127
0.00232815
0.00214276
0.00190269
0.00161906
0.00131501
0.00101821
0.00075239
0.000532037
0.000361437
0.000236999
0.000150777
9.3603e-05
5.70745e-05
3.44348e-05
2.07205e-05
1.25367e-05
7.68961e-06
4.8187e-06
3.10308e-06
2.05719e-06
1.39776e-06
9.61224e-07
6.60961e-07
4.61984e-07
3.27947e-07
2.35534e-07
1.70246e-07
1.23566e-07
9.02034e-08
6.56691e-08
4.53187e-08
2.60203e-08
9.12705e-09
0.000304477
0.000289067
0.000277668
0.000268757
0.000260569
0.000251131
0.000238413
0.000220706
0.000197196
0.000168522
0.000136882
0.000105386
7.69533e-05
5.34576e-05
3.54921e-05
2.26452e-05
1.3968e-05
8.38176e-06
4.92568e-06
2.85529e-06
1.64549e-06
9.50845e-07
5.56049e-07
3.32378e-07
2.05166e-07
1.31984e-07
8.90111e-08
6.29091e-08
4.61829e-08
3.54193e-08
2.85248e-08
2.39463e-08
2.07913e-08
1.85078e-08
1.67611e-08
1.53468e-08
1.40197e-08
1.22354e-08
9.12707e-09
4.37322e-09
0.51141
0.485489
0.451182
0.414935
0.3805
0.349302
0.32159
0.297165
0.275673
0.256739
0.239996
0.22512
0.21185
0.199972
0.189298
0.17966
0.170907
0.162916
0.155583
0.148815
0.142529
0.136654
0.131126
0.125886
0.120878
0.116046
0.111335
0.106686
0.102033
0.097301
0.0923997
0.0872212
0.0816327
0.0754709
0.0685208
0.0603784
0.0497922
0.033793
0.0133872
0.00184088
0.485496
0.460689
0.429608
0.397157
0.366082
0.337542
0.311855
0.288949
0.268597
0.250519
0.234422
0.220044
0.207173
0.195622
0.185222
0.175817
0.167263
0.159451
0.152279
0.14566
0.139517
0.133781
0.128393
0.123297
0.118441
0.113773
0.109239
0.10478
0.100328
0.0958054
0.0911156
0.0861431
0.0807477
0.0747599
0.0679624
0.0599541
0.0494778
0.0335279
0.0131858
0.00179555
0.451186
0.429607
0.40309
0.375228
0.348097
0.322706
0.299448
0.27839
0.259435
0.242411
0.227117
0.213372
0.201017
0.189897
0.179862
0.170769
0.162492
0.154928
0.147986
0.141581
0.135645
0.130114
0.124935
0.120056
0.11543
0.111007
0.106737
0.102559
0.0984003
0.0941748
0.0897753
0.0850737
0.0799188
0.0741341
0.0675018
0.0596293
0.0492612
0.0333579
0.0130526
0.00176445
0.414935
0.397158
0.375229
0.351795
0.328489
0.306218
0.285419
0.266264
0.248765
0.232848
0.218415
0.205367
0.193592
0.182966
0.173356
0.164631
0.156686
0.149424
0.14276
0.136619
0.130937
0.125661
0.120741
0.116135
0.1118
0.107692
0.103764
0.0999518
0.0961791
0.0923451
0.088325
0.08397
0.0791125
0.0735669
0.0671165
0.0593822
0.0491185
0.0332546
0.0129624
0.00174164
0.380499
0.366083
0.348098
0.32849
0.30856
0.289102
0.270566
0.253186
0.23705
0.222182
0.208588
0.196238
0.185062
0.174956
0.165797
0.157477
0.149899
0.142972
0.136617
0.13077
0.125373
0.120381
0.115753
0.111455
0.107455
0.103716
0.100195
0.0968327
0.0935432
0.0902093
0.0866771
0.082764
0.0782764
0.0730167
0.0667715
0.0591809
0.0490167
0.0331802
0.0128835
0.00171958
0.349302
0.337543
0.322707
0.306218
0.289102
0.272037
0.255453
0.239602
0.224637
0.210682
0.19783
0.186122
0.175518
0.165923
0.157225
0.149328
0.142133
0.135556
0.129526
0.123984
0.118883
0.114184
0.109859
0.105884
0.102238
0.0988999
0.0958381
0.0930004
0.0902992
0.0875964
0.0846949
0.0813517
0.0773321
0.0724223
0.0664161
0.058981
0.0489124
0.0330869
0.0127766
0.0016892
0.32159
0.311855
0.299449
0.28542
0.270566
0.255453
0.240456
0.225829
0.211785
0.198523
0.186233
0.17505
0.164952
0.155836
0.147596
0.14012
0.133311
0.127086
0.121379
0.116138
0.111324
0.106908
0.102871
0.099204
0.0959031
0.0929669
0.0903874
0.0881345
0.0861317
0.0842251
0.0821561
0.0795689
0.0761601
0.071694
0.0659792
0.0587231
0.0487514
0.0329168
0.0125958
0.00164046
0.297165
0.288949
0.27839
0.266264
0.253186
0.239602
0.225829
0.212115
0.198679
0.185768
0.173707
0.162855
0.153167
0.144503
0.136706
0.129646
0.123214
0.117331
0.111932
0.106971
0.102416
0.0982463
0.0944553
0.0910476
0.0880399
0.0854589
0.0833351
0.0816862
0.0804825
0.0795847
0.0786639
0.0771357
0.074571
0.0707003
0.0653639
0.0583326
0.0484689
0.0326039
0.0122921
0.0015638
0.275674
0.268597
0.259435
0.248765
0.23705
0.224637
0.211785
0.198679
0.185462
0.17231
0.159718
0.148912
0.139565
0.131334
0.123977
0.117325
0.111261
0.105697
0.100574
0.0958489
0.0914941
0.087498
0.0838637
0.0806103
0.0777755
0.0754191
0.0736255
0.0725004
0.0721399
0.0725303
0.0733371
0.0734934
0.0722422
0.0692505
0.0644476
0.0577241
0.0479953
0.0320797
0.0118187
0.00145243
0.256739
0.250519
0.242411
0.232848
0.222182
0.210682
0.198522
0.185768
0.17231
0.157752
0.141734
0.130772
0.121818
0.11408
0.107197
0.100962
0.0952402
0.0899433
0.0850091
0.0803967
0.0760826
0.0720602
0.0683413
0.0649591
0.0619732
0.0594768
0.0576144
0.0566197
0.0568775
0.0589288
0.0630345
0.0670878
0.0685263
0.0670675
0.0630929
0.0568183
0.0472678
0.0312833
0.0111411
0.00130495
0.239996
0.234422
0.227116
0.218414
0.208587
0.19783
0.186233
0.173707
0.159718
0.141734
0.00578705
0.00445676
0.00508226
0.00543691
0.00559825
0.00563333
0.00558061
0.00546569
0.0053076
0.00512173
0.00492155
0.00471988
0.00453014
0.00436809
0.00425504
0.00422457
0.00434035
0.00475248
0.00592385
0.00976344
0.0602126
0.0639829
0.0655945
0.0647761
0.0614383
0.0556285
0.0462566
0.0301748
0.0102468
0.00112718
0.22512
0.220044
0.213372
0.205366
0.196237
0.186122
0.17505
0.162854
0.148912
0.130772
0.00445678
0.000321484
0.000224623
0.000259471
0.000282445
0.00029382
0.000296483
0.000292721
0.000284395
0.000273084
0.000260171
0.000246919
0.000234569
0.000224476
0.000218377
0.000218968
0.000231353
0.000267252
0.000359084
0.000600795
0.0572851
0.0614171
0.063042
0.0625155
0.0596211
0.0542245
0.0449733
0.0287404
0.00915256
0.000931742
0.21185
0.207173
0.201017
0.193592
0.185061
0.175518
0.164952
0.153166
0.139564
0.121818
0.00508227
0.000224623
1.29381e-05
8.5014e-06
9.65944e-06
1.0436e-05
1.07776e-05
1.07745e-05
1.05161e-05
1.00855e-05
9.55764e-06
9.00025e-06
8.47661e-06
8.05086e-06
7.79881e-06
7.83106e-06
8.34684e-06
9.77227e-06
1.31124e-05
2.00872e-05
0.0544936
0.0590264
0.060662
0.060299
0.05773
0.0526822
0.0434481
0.0269833
0.00790424
0.000734985
0.199972
0.195622
0.189897
0.182966
0.174955
0.165923
0.155836
0.144502
0.131334
0.11408
0.00543692
0.000259472
8.50142e-06
4.17612e-07
2.6011e-07
2.87476e-07
3.04285e-07
3.08596e-07
3.03126e-07
2.90806e-07
2.74436e-07
2.56552e-07
2.39436e-07
2.2523e-07
2.16225e-07
2.15466e-07
2.2805e-07
2.64015e-07
3.43538e-07
4.82809e-07
0.0518183
0.0567195
0.0583755
0.0581297
0.0558258
0.0510605
0.0417031
0.0249121
0.00657228
0.000552707
0.189298
0.185222
0.179862
0.173356
0.165797
0.157225
0.147596
0.136706
0.123977
0.107197
0.00559826
0.000282446
9.65947e-06
2.60111e-07
1.11439e-08
6.59855e-09
7.04702e-09
7.2493e-09
7.16883e-09
6.88182e-09
6.46777e-09
5.99988e-09
5.54212e-09
5.15052e-09
4.87888e-09
4.79101e-09
4.98488e-09
5.63957e-09
7.07035e-09
9.30315e-09
0.0492549
0.0544747
0.05616
0.0560207
0.0539546
0.0493885
0.0397449
0.0225366
0.00524265
0.000396558
0.17966
0.175816
0.170769
0.164631
0.157477
0.149327
0.14012
0.129645
0.117325
0.100961
0.00563333
0.000293821
1.0436e-05
2.87477e-07
6.59857e-09
2.50119e-10
1.40813e-10
1.44657e-10
1.43881e-10
1.3813e-10
1.29208e-10
1.18836e-10
1.08491e-10
9.93932e-11
9.25986e-11
8.92116e-11
9.07777e-11
9.9956e-11
1.20996e-10
1.51737e-10
0.0468045
0.0522942
0.0540196
0.0539942
0.052149
0.0476424
0.0375633
0.0198743
0.00400264
0.000272205
0.170907
0.167263
0.162491
0.156685
0.149899
0.142133
0.133311
0.123214
0.11126
0.0952401
0.00558062
0.000296484
1.07777e-05
3.04285e-07
7.04704e-09
1.40814e-10
4.77371e-12
2.55394e-12
2.51601e-12
2.41226e-12
2.24339e-12
2.04351e-12
1.84146e-12
1.66051e-12
1.51846e-12
1.43199e-12
1.4224e-12
1.52413e-12
1.78952e-12
2.16709e-12
0.044467
0.0501895
0.0519714
0.0520746
0.0504184
0.0457469
0.0351347
0.0169696
0.00292329
0.000179559
0.162916
0.15945
0.154928
0.149424
0.142971
0.135556
0.127086
0.117331
0.105697
0.0899432
0.0054657
0.000292721
1.07745e-05
3.08597e-07
7.24933e-09
1.44658e-10
2.55394e-12
7.84996e-14
4.00039e-14
3.76733e-14
3.47395e-14
3.12182e-14
2.77763e-14
2.46678e-14
2.20737e-14
2.03052e-14
1.97368e-14
2.05751e-14
2.36423e-14
2.79256e-14
0.0422348
0.0481704
0.0500324
0.0502736
0.0487262
0.0436814
0.032425
0.013921
0.00204557
0.000114497
0.155583
0.152279
0.147985
0.142759
0.136617
0.129526
0.121379
0.111932
0.100574
0.085009
0.00530761
0.000284395
1.05161e-05
3.03127e-07
7.16885e-09
1.43881e-10
2.51601e-12
4.00039e-14
1.20656e-16
1.20656e-16
1.14306e-16
9.52549e-18
0
0
0
0
0
0
0
0
0.0400804
0.04623
0.0482005
0.0485656
0.0469418
0.0414166
0.0293937
0.0108983
0.00137688
7.10698e-05
0.148815
0.14566
0.141581
0.136618
0.13077
0.123984
0.116138
0.106971
0.0958488
0.0803966
0.00512173
0.000273085
1.00855e-05
2.90807e-07
6.88184e-09
1.38131e-10
2.41222e-12
3.76733e-14
1.20656e-16
0
0
0
0
0
0
0
0
0
0
0
0.037945
0.0443209
0.046424
0.0468368
0.0449572
0.0389082
0.0260095
0.00811948
0.000897498
4.32851e-05
0.142529
0.139516
0.135645
0.130937
0.125373
0.118883
0.111324
0.102416
0.0914939
0.0760825
0.00492155
0.000260171
9.55766e-06
2.74436e-07
6.46779e-09
1.29208e-10
2.24342e-12
3.47395e-14
1.14306e-16
0
0
0
0
0
0
0
0
0
0
0
0.0357954
0.0423361
0.0445572
0.0449241
0.0427488
0.0361043
0.0222848
0.00577607
0.000571896
2.60978e-05
0.136654
0.133781
0.130114
0.125661
0.120381
0.114184
0.106908
0.0982462
0.0874979
0.0720601
0.00471989
0.000246919
9.00026e-06
2.56553e-07
5.9999e-09
1.18836e-10
2.04354e-12
3.12182e-14
9.52549e-18
0
0
0
0
0
0
0
0
0
0
0
0.0336025
0.04023
0.042518
0.0427907
0.0402741
0.0329512
0.018324
0.00395837
0.000360171
1.5727e-05
0.131126
0.128393
0.124935
0.120741
0.115753
0.109859
0.102871
0.0944552
0.0838635
0.0683412
0.00453014
0.000234569
8.47663e-06
2.39437e-07
5.54214e-09
1.08491e-10
1.84146e-12
2.77763e-14
0
0
0
0
0
0
0
0
0
0
0
0
0.0313087
0.0379483
0.0402574
0.0403843
0.0374738
0.0294067
0.0143572
0.00264338
0.000226672
9.56941e-06
0.125886
0.123297
0.120056
0.116134
0.111455
0.105884
0.0992039
0.0910475
0.0806101
0.064959
0.0043681
0.000224476
8.05087e-06
2.25231e-07
5.15053e-09
9.93936e-11
1.66051e-12
2.46678e-14
0
0
0
0
0
0
0
0
0
0
0
0
0.02882
0.0353971
0.0376879
0.0376245
0.0342774
0.0254658
0.0107021
0.00174072
0.000144055
5.94279e-06
0.120877
0.118441
0.115429
0.111799
0.107455
0.102238
0.095903
0.0880398
0.0777754
0.0619731
0.00425504
0.000218377
7.79883e-06
2.16226e-07
4.87889e-09
9.25988e-11
1.51846e-12
2.20737e-14
0
0
0
0
0
0
0
0
0
0
0
0
0.0259945
0.0324337
0.0346787
0.0344022
0.0306123
0.0211993
0.00763521
0.00114329
9.33369e-05
3.80815e-06
0.116046
0.113773
0.111007
0.107692
0.103716
0.0988998
0.0929668
0.0854588
0.075419
0.0594768
0.00422457
0.000218968
7.83107e-06
2.15467e-07
4.79102e-09
8.92119e-11
1.43199e-12
2.03052e-14
0
0
0
0
0
0
0
0
0
0
0
0
0.022636
0.0288551
0.0310489
0.0305812
0.0264209
0.0167895
0.00526815
0.000755674
6.21182e-05
2.54297e-06
0.111335
0.109239
0.106737
0.103763
0.100195
0.0958379
0.0903873
0.083335
0.0736254
0.0576144
0.00434036
0.000231354
8.34686e-06
2.2805e-07
4.98489e-09
9.0778e-11
1.4224e-12
1.97368e-14
0
0
0
0
0
0
0
0
0
0
0
0
0.018526
0.0244036
0.0265718
0.0260122
0.0216937
0.0125222
0.00354383
0.000504546
4.26091e-05
1.78128e-06
0.106686
0.104779
0.102558
0.0999517
0.0968326
0.0930002
0.0881343
0.0816861
0.0725003
0.0566196
0.00475248
0.000267252
9.77228e-06
2.64016e-07
5.63959e-09
9.99564e-11
1.52413e-12
2.05751e-14
0
0
0
0
0
0
0
0
0
0
0
0
0.0135863
0.0188594
0.0210459
0.0205983
0.0165385
0.00870752
0.00232486
0.000339082
3.00373e-05
1.30958e-06
0.102033
0.100328
0.0984002
0.0961789
0.0935431
0.0902991
0.0861315
0.0804824
0.0721398
0.0568774
0.00592385
0.000359085
1.31124e-05
3.43539e-07
7.07036e-09
1.20997e-10
1.78952e-12
2.36423e-14
0
0
0
0
0
0
0
0
0
0
0
0
0.00825844
0.0124017
0.0145762
0.014506
0.0113016
0.00557434
0.0014724
0.000226476
2.15166e-05
1.0025e-06
0.0973009
0.0958052
0.0941746
0.092345
0.0902091
0.0875963
0.084225
0.0795845
0.0725302
0.0589287
0.00976345
0.000600796
2.00872e-05
4.8281e-07
9.30317e-09
1.51737e-10
2.16709e-12
2.79256e-14
0
0
0
0
0
0
0
0
0
0
0
0
0.00372378
0.00623862
0.00813075
0.00853418
0.00664373
0.00322306
0.000880475
0.000146926
1.5385e-05
7.95791e-07
0.0923996
0.0911154
0.0897751
0.0883248
0.086677
0.0846947
0.082156
0.0786638
0.073337
0.0630344
0.0602125
0.0572851
0.0544936
0.0518183
0.0492549
0.0468045
0.044467
0.0422348
0.0400804
0.037945
0.0357954
0.0336025
0.0313087
0.02882
0.0259946
0.0226361
0.0185262
0.0135865
0.00825861
0.00372389
0.00168732
0.00230249
0.00344098
0.00399403
0.00325822
0.00163949
0.000481947
9.05645e-05
1.10062e-05
6.54888e-07
0.0872211
0.0861429
0.0850735
0.0839698
0.0827639
0.0813516
0.0795687
0.0771355
0.0734933
0.0670877
0.0639829
0.061417
0.0590264
0.0567195
0.0544746
0.0522942
0.0501894
0.0481703
0.0462299
0.0443209
0.0423361
0.04023
0.0379483
0.0353971
0.0324337
0.0288552
0.0244037
0.0188596
0.0124019
0.00623878
0.00230256
0.00114845
0.00125316
0.0015177
0.00132779
0.000718627
0.000238744
5.41612e-05
7.86352e-06
5.54638e-07
0.0816326
0.0807476
0.0799187
0.0791124
0.0782763
0.077332
0.07616
0.0745708
0.072242
0.0685261
0.0655944
0.0630419
0.0606619
0.0583754
0.0561599
0.0540195
0.0519713
0.0500323
0.0482005
0.046424
0.0445571
0.042518
0.0402574
0.0376879
0.0346788
0.0310489
0.0265719
0.0210461
0.0145764
0.00813095
0.00344109
0.00125319
0.000618843
0.000540132
0.00047051
0.000283094
0.000114403
3.17486e-05
5.61337e-06
4.80866e-07
0.0754708
0.0747598
0.074134
0.0735667
0.0730165
0.0724221
0.0716938
0.0707001
0.0692504
0.0670674
0.064776
0.0625154
0.0602989
0.0581296
0.0560206
0.0539942
0.0520746
0.0502736
0.0485655
0.0468367
0.0449241
0.0427907
0.0403843
0.0376245
0.0344022
0.0305813
0.0260124
0.0205985
0.0145062
0.00853437
0.00399416
0.00151775
0.000540148
0.000254754
0.000175253
0.000112769
5.41974e-05
1.83697e-05
3.99745e-06
4.2382e-07
0.0685207
0.0679622
0.0675017
0.0671164
0.0667714
0.066416
0.065979
0.0653638
0.0644475
0.0630928
0.0614382
0.059621
0.0577299
0.0558258
0.0539545
0.0521489
0.0504184
0.0487261
0.0469418
0.0449572
0.0427488
0.0402741
0.0374739
0.0342775
0.0306124
0.0264211
0.0216939
0.0165387
0.0113018
0.00664388
0.00325832
0.00132784
0.000470528
0.000175258
8.52264e-05
4.96739e-05
2.62933e-05
1.06064e-05
2.83529e-06
3.76406e-07
0.0603783
0.059954
0.0596292
0.0593821
0.0591808
0.0589809
0.058723
0.0583325
0.057724
0.0568182
0.0556285
0.0542244
0.0526821
0.0510604
0.0493884
0.0476424
0.0457469
0.0436813
0.0414166
0.0389082
0.0361044
0.0329513
0.0294067
0.0254659
0.0211995
0.0167896
0.0125223
0.00870766
0.00557446
0.00322314
0.00163954
0.000718652
0.000283104
0.000112773
4.96748e-05
2.55105e-05
1.36172e-05
6.21266e-06
2.00177e-06
3.33211e-07
0.0497921
0.0494777
0.0492611
0.0491184
0.0490166
0.0489123
0.0487513
0.0484688
0.0479952
0.0472677
0.0462565
0.0449732
0.0434481
0.0417031
0.0397449