/*--------------------------------*- C++ -*----------------------------------*\
| =========                 |                                                 |
| \\      /  F ield         | OpenFOAM: The Open Source CFD Toolbox           |
|  \\    /   O peration     | Version:  2.1.0                                 |
|   \\  /    A nd           | Web:      www.OpenFOAM.org                      |
|    \\/     M anipulation  |                                                 |
\*---------------------------------------------------------------------------*/
FoamFile
{
    version     2.0;
    format      ascii;
    class       surfaceScalarField;
    location    "28105";
    object      phi_w;
}
// * * * * * * * * * * * * * * * * * * * * * * * * * * * * * * * * * * * * * //

dimensions      [1 -2 -2 0 0 0 0];

internalField   nonuniform List<scalar> 
22000
(
12.5865
12.5865
-20.674
21.1212
11.2012
-15.6717
25.6384
9.31985
-10.291
27.5307
7.53032
-6.32011
28.0365
6.03527
-3.78789
27.9414
4.84307
-2.2701
27.6786
3.9007
-1.37952
27.4667
3.14929
-0.855297
27.4065
2.54194
-0.54049
27.5357
2.04603
-0.345798
27.8565
1.63987
-0.222255
28.3518
1.30895
-0.142362
28.9954
1.04288
-0.0894901
29.757
0.833225
-0.0534425
30.6059
0.672637
-0.0280581
31.5129
0.554736
-0.00968916
32.45
0.474235
0.00387668
33.3915
0.427372
0.0146736
34.3117
0.412129
0.0237824
35.1844
0.428337
0.0318944
35.9804
0.477725
0.0394841
36.6666
0.563881
0.0469036
37.2042
0.692041
0.0544373
37.5477
0.868578
0.0623478
37.6447
1.10002
0.0709085
37.4379
1.39138
0.0804383
36.8688
1.74374
0.0913532
35.885
2.1513
0.104213
34.4495
2.59882
0.119778
32.5516
3.06104
0.139077
30.2142
3.5061
0.163441
27.4946
3.90325
0.194358
24.478
4.23146
0.232662
21.2714
4.48326
0.275661
18.0067
4.66346
0.308427
14.8388
4.78581
0.278764
11.8289
4.86904
0.0661955
8.63253
4.92761
-0.401317
4.53525
4.95602
-0.76027
4.96192
-0.520731
11.2013
21.1211
-15.6716
19.2398
19.2397
-12.3801
23.8488
16.478
-8.48605
26.0356
13.6655
-5.40181
26.8443
11.1824
-3.33032
26.999
9.11538
-2.04006
26.9272
7.42569
-1.26039
26.8593
6.04251
-0.79067
26.9106
4.90157
-0.503246
27.1296
3.95554
-0.323149
27.5255
3.17225
-0.20803
28.0858
2.5301
-0.133087
28.7858
2.01256
-0.083068
29.5964
1.60489
-0.0486501
30.488
1.29321
-0.0241968
31.4324
1.06497
-0.00639395
32.4032
0.909474
0.00695658
33.3762
0.819247
0.0177715
34.3279
0.790224
0.0270337
35.2337
0.822059
0.0353895
36.0665
0.918296
0.0432861
36.7948
1.08636
0.0510571
37.3808
1.33725
0.0589706
37.7791
1.68472
0.06727
37.936
2.1435
0.0762126
37.7903
2.72605
0.086102
37.2764
3.43747
0.0973324
36.3325
4.26876
0.110444
34.9117
5.18993
0.126184
32.9966
6.14707
0.145572
30.6114
7.06881
0.169956
27.8228
7.88507
0.20087
24.7298
8.54996
0.239246
21.4516
9.05033
0.282621
18.129
9.40029
0.316142
14.922
9.63048
0.286305
11.8875
9.77778
0.0684537
8.66094
9.87136
-0.410255
4.54115
9.91715
-0.7678
9.93054
-0.521127
9.3199
25.6383
-10.291
16.4781
23.8488
-8.48608
21.0363
21.0363
-6.13606
23.5525
17.9639
-4.10842
24.7773
15.0753
-2.64561
25.3094
12.5378
-1.67967
25.544
10.3683
-1.06724
25.7184
8.52551
-0.683162
25.9645
6.9597
-0.440367
26.3463
5.63114
-0.284781
26.8834
4.51385
-0.183793
27.5682
3.59063
-0.117039
28.3781
2.84538
-0.0717534
29.2847
2.25978
-0.0400728
30.2598
1.81404
-0.0172509
31.2769
1.48901
-0.000495367
32.313
1.26852
0.0125728
33.3472
1.14099
0.0234269
34.3598
1.10013
0.0329487
35.33
1.14538
0.0417184
36.2346
1.2822
0.050136
37.0457
1.5222
0.0584949
37.7282
1.88303
0.0670301
38.2379
2.38761
0.0759531
38.5186
3.06213
0.0854827
38.5017
3.93158
0.0958808
38.1077
5.01189
0.107501
37.2537
6.29765
0.120842
35.8688
7.74715
0.136613
33.9184
9.27134
0.155828
31.4276
10.7405
0.179863
28.4877
12.0225
0.210336
25.2302
13.038
0.248355
21.8015
13.7741
0.291815
18.3592
14.2662
0.325957
15.0693
14.5718
0.295808
11.9811
14.7523
0.0721873
8.70672
14.8556
-0.418516
4.55454
14.9025
-0.776047
14.9157
-0.522764
7.5304
27.5307
-6.32019
13.6655
26.0356
-5.40182
17.9639
23.5525
-4.10841
20.6639
20.6638
-2.8984
22.2398
17.7757
-1.95844
23.1398
15.0919
-1.2958
23.7013
12.6801
-0.850957
24.1526
10.5413
-0.557787
24.636
8.65645
-0.365101
25.229
7.01062
-0.238158
25.9602
5.60091
-0.153818
26.823
4.42839
-0.0967371
27.7925
3.48424
-0.0570845
28.839
2.74784
-0.028731
29.9347
2.19232
-0.00796835
31.0564
1.79039
0.00770247
32.1854
1.51945
0.0204601
33.3064
1.36327
0.0314418
34.405
1.31305
0.0413887
35.4668
1.36786
0.0507893
36.4746
1.53502
0.0599785
37.4065
1.83049
0.0691977
38.2328
2.27937
0.0786291
38.9124
2.91586
0.0884288
39.388
3.78198
0.098756
39.582
4.92325
0.109802
39.3934
6.37862
0.121846
38.7032
8.16126
0.13531
37.393
10.2288
0.150848
35.3876
12.4502
0.169453
32.7096
14.5996
0.192541
29.5031
16.427
0.221868
25.9664
17.8063
0.258813
22.2936
18.7444
0.301777
18.6649
19.3237
0.336177
15.2498
19.6483
0.305716
12.0843
19.8141
0.0768846
8.75362
19.8917
-0.425053
4.56782
19.9162
-0.783721
19.9172
-0.525014
6.03531
28.0365
-3.78792
11.1824
26.8442
-3.33032
15.0753
24.7772
-2.6456
17.7757
22.2398
-1.95844
19.5561
19.556
-1.38599
20.728
16.9223
-0.955041
21.5625
14.4313
-0.647764
22.2677
12.1156
-0.434587
22.9901
9.98688
-0.288845
23.8193
8.0643
-0.189715
24.7877
6.38505
-0.121767
25.8788
4.9879
-0.0743339
27.0561
3.87636
-0.0404052
28.2835
3.02384
-0.0155658
29.5328
2.3909
0.00300666
30.7854
1.93915
0.0178839
32.0292
1.63747
0.0305371
33.2561
1.46426
0.0418954
34.4598
1.40791
0.0525624
35.634
1.46691
0.0629325
36.7701
1.65005
0.073268
37.8554
1.97733
0.0837439
38.8693
2.48129
0.0944717
39.7785
3.20875
0.105527
40.5293
4.22193
0.116974
41.0374
5.59691
0.128897
41.1761
7.41482
0.141451
40.7707
9.73726
0.154941
39.6144
12.5539
0.169916
37.537
15.6987
0.187315
34.537
18.7782
0.208604
30.8824
21.2775
0.235761
26.9045
23.0137
0.270618
22.8729
24.0727
0.312264
18.9894
24.6383
0.346391
15.4156
24.891
0.31549
12.1619
24.9728
0.081798
8.77816
24.9774
-0.430735
4.5688
24.9491
-0.790527
24.922
-0.526766
4.8431
27.9414
-2.27011
9.11541
26.999
-2.04007
12.5378
25.3093
-1.67968
15.0919
23.1398
-1.29581
16.9223
20.728
-0.955045
18.237
18.237
-0.681862
19.2468
15.7572
-0.475597
20.139
13.3316
-0.325645
21.0676
10.9902
-0.219072
22.14
8.78631
-0.143796
23.3905
6.8203
-0.0902175
24.7673
5.20984
-0.0514329
26.2036
3.9681
-0.0228195
27.6505
3.04602
-0.00137666
29.0811
2.38001
0.015642
30.4838
1.91438
0.0300721
31.856
1.60754
0.0430085
33.1998
1.43219
0.0551707
34.5188
1.37407
0.0670345
35.8171
1.43083
0.0789038
37.0973
1.61204
0.0909641
38.3593
1.94036
0.10331
39.5968
2.45415
0.11596
40.7917
3.21173
0.128875
41.9043
4.29704
0.141981
42.8553
5.8255
0.155198
43.4985
7.94498
0.168501
43.5873
10.8177
0.182006
42.7592
14.5493
0.196081
40.6165
19.0097
0.21153
37.0363
23.5334
0.229824
32.6186
26.8863
0.253295
27.9635
28.8936
0.284585
23.4385
29.8908
0.323713
19.2422
30.2656
0.356712
15.4974
30.3105
0.324737
12.1665
30.216
0.0854612
8.74993
30.0898
-0.437783
4.54169
29.9736
-0.796821
29.9008
-0.526977
3.90071
27.6786
-1.37953
7.42571
26.9272
-1.2604
10.3683
25.544
-1.06725
12.6801
23.7013
-0.850967
14.4313
21.5625
-0.647771
15.7573
19.2468
-0.4756
16.8212
16.8212
-0.339194
17.7976
14.3139
-0.235776
18.8637
11.7459
-0.159131
20.174
9.18712
-0.102634
21.7801
6.83511
-0.060707
23.5255
5.01146
-0.0291936
25.2815
3.69786
-0.00523232
26.9845
2.77715
0.013761
28.6154
2.1402
0.029935
30.1769
1.70775
0.0445308
31.6807
1.42771
0.0583645
33.1417
1.26863
0.0719893
34.5756
1.21468
0.0857739
35.9983
1.26287
0.099942
37.4257
1.4224
0.114601
38.8731
1.71597
0.129754
40.3543
2.18357
0.145296
41.877
2.88934
0.161026
43.4328
3.93309
0.176667
44.9748
5.46845
0.191907
46.3712
7.72799
0.206476
47.3189
11.0449
0.220236
47.2196
15.8199
0.233283
45.1403
22.2583
0.246071
40.3892
29.4566
0.259745
34.6258
33.8352
0.277045
28.9607
35.7767
0.302372
23.8133
36.326
0.337128
19.287
36.2216
0.367624
15.4029
35.8747
0.333116
12.0402
35.4964
0.0858685
8.63374
35.1791
-0.449255
4.46889
34.9406
-0.803192
34.8059
-0.52469
3.1493
27.4667
-0.855301
6.04252
26.8593
-0.790679
8.52553
25.7184
-0.683174
10.5414
24.1526
-0.557798
12.1156
22.2677
-0.434594
13.3316
20.1389
-0.325649
14.3139
17.7975
-0.235777
15.2296
15.2296
-0.164655
16.3049
12.395
-0.109505
17.822
9.30492
-0.067012
19.9564
6.26085
-0.0342314
22.2119
4.25338
-0.00865493
24.3608
2.9937
0.0119345
26.3476
2.19186
0.0297515
28.183
1.67066
0.0460193
29.8969
1.33017
0.0616283
31.5216
1.11455
0.0772086
33.0877
0.99335
0.0932075
34.6238
0.952003
0.109919
36.1578
0.987589
0.127498
37.7192
1.10756
0.14598
39.3407
1.33096
0.165267
41.0601
1.69246
0.18509
42.9207
2.25043
0.20501
44.9681
3.10225
0.224461
47.2343
4.41449
0.242844
49.6881
6.48228
0.259634
52.094
9.842
0.274515
53.6579
15.452
0.287368
52.3386
24.7644
0.297897
44.7679
38.2064
0.305393
36.5673
43.2199
0.311946
29.51
44.0467
0.326789
23.7089
43.4096
0.354033
18.9401
42.4192
0.379869
15.0246
41.4767
0.340235
11.723
40.718
0.0803687
8.39528
40.1643
-0.46891
4.33413
39.7798
-0.810173
39.573
-0.519103
2.54194
27.4065
-0.540495
4.90158
26.9105
-0.503255
6.95973
25.9645
-0.440378
8.65647
24.636
-0.365111
9.9869
22.9901
-0.288852
10.9902
21.0676
-0.219076
11.7459
18.8637
-0.159133
12.395
16.3049
-0.109506
13.2149
13.2148
-0.0692673
14.7779
9.30919
-0.0372103
17.9489
4.59599
-0.0120685
20.9522
2.70324
0.00913799
23.5589
1.79822
0.0282113
25.8264
1.30294
0.0460106
27.8425
1.00769
0.0633236
29.6813
0.825138
0.0808244
31.4004
0.714579
0.0990469
33.0464
0.656051
0.118391
34.6594
0.640642
0.139107
36.2778
0.666766
0.161275
37.9426
0.738819
0.184863
39.7022
0.86776
0.209695
41.6181
1.07442
0.235292
43.7726
1.39549
0.26084
46.2804
1.896
0.285405
49.3021
2.6969
0.308148
53.0478
4.04332
0.328494
57.7041
6.49308
0.346588
62.9703
11.4877
0.363164
65.7805
23.2388
0.377364
49.7814
55.4578
0.381001
37.3941
56.8256
0.366344
28.873
53.7902
0.361204
22.7185
50.8475
0.375837
17.9976
48.5719
0.394125
14.2659
46.9051
0.345518
11.1693
45.7325
0.0656086
8.01078
44.9371
-0.50085
4.12732
44.4054
-0.817783
44.128
-0.509718
2.04604
27.5357
-0.345803
3.95556
27.1295
-0.323157
5.63116
26.3463
-0.284791
7.01064
25.229
-0.238166
8.06433
23.8192
-0.189721
8.78634
22.14
-0.143799
9.18715
20.174
-0.102636
9.30495
17.8219
-0.0670125
9.30922
14.7779
-0.0372104
10.0647
10.0646
-0.0138102
16.0562
3.89179
0.00267015
20.0472
7.3126
0.0211844
23.0637
9.62403
0.0395708
25.5311
11.6832
0.057738
27.6599
13.662
0.0761853
29.5707
15.625
0.0955029
31.3419
17.6089
0.116224
33.031
19.6406
0.138748
34.6855
21.7441
0.163238
36.3499
23.9425
0.18958
38.0716
26.261
0.217696
39.9089
28.7302
0.247669
41.9391
31.3873
0.279031
44.2731
34.2831
0.310561
47.0813
37.4951
0.340357
50.6485
41.1672
0.366389
55.4976
45.6298
0.387906
62.6987
51.8311
0.407808
74.7214
63.1258
0.433866
97.9995
93.646
0.473983
51.1492
104.36
0.499982
34.3587
75.1442
0.441151
25.9302
63.5212
0.40159
20.4429
57.6372
0.400101
16.3308
54.1273
0.409683
13.0933
51.8554
0.347773
10.3739
50.3601
0.0375283
7.47914
49.3794
-0.548831
3.84985
48.7306
-0.824944
48.3984
-0.496538
1.63988
27.8565
-0.22226
3.17226
27.5255
-0.208037
4.51387
26.8834
-0.1838
5.60093
25.9602
-0.153824
6.38506
24.7876
-0.121771
6.82031
23.3905
-0.0902198
6.83513
21.78
-0.0607079
6.26086
19.9564
-0.0342316
4.596
17.9489
-0.0120683
3.89185
16.0562
0.00267056
19.477
19.4769
-0.457615
22.3587
31.3766
-0.680921
25.1228
39.9173
-0.869312
27.5099
46.736
-1.05395
29.623
52.525
-1.24214
31.5546
57.6407
-1.43972
33.3736
62.2892
-1.65125
35.1345
66.6041
-1.88064
36.8839
70.6838
-2.13242
38.6684
74.6107
-2.41096
40.5407
78.4645
-2.72061
42.5661
82.3311
-3.06715
44.8349
86.3138
-3.45717
47.4851
90.5498
-3.89813
50.7533
95.2354
-4.39954
55.1111
100.667
-4.97609
61.6989
107.29
-5.65895
73.9933
115.617
-6.51678
105.242
125.068
-7.57731
108.714
125.773
-7.45919
21.9334
86.432
0.342692
22.7357
75.7216
0.399852
20.0462
67.5299
0.407933
16.933
62.084
0.418455
14.0589
58.4735
0.425766
11.598
56.0567
0.346011
9.39315
54.4541
-0.00720775
6.83034
53.3979
-0.614966
3.51762
52.6881
-0.829042
52.3286
-0.480221
1.30896
28.3518
-0.142366
2.5301
28.0858
-0.133092
3.59065
27.5682
-0.117044
4.42841
26.823
-0.0967416
4.98791
25.8788
-0.0743366
5.20986
24.7673
-0.0514341
5.01148
23.5255
-0.0291939
4.25339
22.2119
-0.00865488
2.70325
20.9522
0.00913821
7.31262
20.0472
0.0211846
31.3767
22.3586
-0.680922
30.8993
30.8993
-0.382211
31.9416
38.2807
-0.354207
33.2989
44.6775
-0.393533
34.7387
50.3056
-0.448841
36.203
55.3545
-0.509982
37.6886
59.9691
-0.574014
39.2141
64.2582
-0.640653
40.8108
68.3068
-0.711186
42.5222
72.1861
-0.787179
44.4073
75.9598
-0.870749
46.5488
79.6884
-0.965003
49.0708
83.4325
-1.073
52.1708
87.2515
-1.19829
56.1853
91.1947
-1.34557
61.7338
95.2635
-1.52067
70.0258
99.2885
-1.73105
83.4447
102.545
-1.97639
105.946
102.665
-2.17009
69.373
93.2474
-1.71846
11.223
78.3698
0.294953
14.544
73.7772
0.380639
14.6002
68.8112
0.412898
13.3225
64.7298
0.436315
11.6422
61.6695
0.442656
9.99531
59.4824
0.338247
8.33695
57.9795
-0.0688831
6.12055
56.9554
-0.698915
3.15809
56.2475
-0.826235
55.8913
-0.462042
1.04288
28.9954
-0.0894931
2.01257
28.7858
-0.0830718
2.84539
28.3781
-0.0717572
3.48425
27.7925
-0.0570872
3.87637
27.0561
-0.0404066
3.96811
26.2036
-0.02282
3.69787
25.2815
-0.00523228
2.99371
24.3608
0.0119347
1.79823
23.5589
0.0282114
9.62405
23.0636
0.0395708
39.9173
25.1228
-0.869314
38.2808
31.9415
-0.354208
38.3383
38.3383
-0.215758
38.9269
44.2106
-0.188962
39.7876
49.5587
-0.190967
40.8177
54.4453
-0.204975
41.9777
58.9471
-0.225223
43.2627
63.1352
-0.249362
44.6901
67.0713
-0.276832
46.2959
70.8074
-0.3079
48.136
74.3872
-0.342957
50.2928
77.8446
-0.382932
52.8898
81.1999
-0.4287
56.1139
84.449
-0.480989
60.2542
87.5383
-0.540315
65.7588
90.3085
-0.60536
73.282
92.3758
-0.66918
83.5646
92.8991
-0.706571
96.5287
90.2397
-0.634433
54.4954
81.9451
-0.230023
6.63037
74.473
0.300708
9.57807
72.207
0.381332
10.5188
69.2289
0.424033
10.2622
66.3949
0.456835
9.45507
64.0484
0.45885
8.4924
62.267
0.318388
7.31293
60.9874
-0.154739
5.41262
60.0696
-0.798871
2.80193
59.4174
-0.812751
59.0908
-0.443594
0.833229
29.757
-0.0534446
1.60489
29.5964
-0.0486526
2.25979
29.2847
-0.040075
2.74785
28.839
-0.0287324
3.02385
28.2834
-0.0155663
3.04603
27.6505
-0.00137657
2.77716
26.9845
0.0137613
2.19187
26.3475
0.0297517
1.30295
25.8263
0.0460106
11.6832
25.5311
0.0577379
46.7361
27.5099
-1.05396
44.6775
33.2989
-0.393533
44.2106
38.9269
-0.188962
44.2751
44.275
-0.132098
44.6743
49.2708
-0.113302
45.3194
53.9082
-0.110501
46.1658
58.2137
-0.115495
47.1988
62.2245
-0.124742
48.4263
65.9781
-0.136951
49.8757
69.5072
-0.151493
51.5934
72.8359
-0.168069
53.6481
75.9755
-0.187054
56.1389
78.9166
-0.208518
59.2031
81.6164
-0.232191
63.0245
83.9738
-0.257478
67.8261
85.7877
-0.281565
73.8053
86.6922
-0.296517
80.9052
86.0811
-0.283037
88.2341
83.1054
-0.196696
47.0233
77.0126
0.0479877
4.36435
72.6035
0.310169
6.60003
71.354
0.388689
7.68483
69.5296
0.439707
7.91565
67.622
0.479075
7.67367
65.9296
0.469365
7.21284
64.586
0.276015
6.39511
63.5712
-0.271236
4.76037
62.795
-0.909926
2.47533
62.2363
-0.786287
61.9573
-0.42629
0.672639
30.6059
-0.0280595
1.29322
30.488
-0.0241983
1.81404
30.2598
-0.017252
2.19233
29.9347
-0.00796886
2.39091
29.5328
0.00300676
2.38002
29.0811
0.0156423
2.14021
28.6154
0.0299353
1.67067
28.183
0.0460195
1.0077
27.8425
0.0633236
13.662
27.6599
0.0761852
52.525
29.6229
-1.24214
50.3056
34.7387
-0.448842
49.5587
39.7876
-0.190968
49.2709
44.6742
-0.113302
49.3117
49.3116
-0.0815032
49.6249
53.6639
-0.0690702
50.1766
57.7279
-0.0660493
50.9524
61.5164
-0.0678771
51.9553
65.0474
-0.0726348
53.2044
68.3372
-0.0792824
54.7329
71.3948
-0.0871944
56.5893
74.2157
-0.0964274
58.8387
76.7743
-0.106697
61.5605
79.0129
-0.117396
64.8383
80.8243
-0.127726
68.7306
82.0309
-0.134978
73.1942
82.3622
-0.133057
77.9295
81.4557
-0.109547
82.1413
78.9335
-0.0394982
42.6143
74.6435
0.125932
3.11485
71.833
0.312865
4.7756
71.0895
0.395727
5.77719
69.95
0.456154
6.22329
68.6942
0.498295
6.33004
67.5355
0.464452
6.19808
66.5879
0.196227
5.61889
65.8275
-0.422673
4.20174
65.2041
-1.02396
2.19627
64.7608
-0.747531
64.5393
-0.411025
0.554739
31.5129
-0.00969012
1.06498
31.4324
-0.00639477
1.48902
31.2769
-0.000495718
1.7904
31.0564
0.00770251
1.93916
30.7854
0.0178842
1.91439
30.4838
0.0300726
1.70776
30.1769
0.0445312
1.33017
29.8969
0.0616286
0.825142
29.6813
0.0808244
15.625
29.5707
0.0955028
57.6407
31.5546
-1.43972
55.3545
36.203
-0.509983
54.4454
40.8177
-0.204975
53.9083
45.3194
-0.110501
53.664
49.6249
-0.0690703
53.6889
53.6889
-0.0501979
53.965
57.4936
-0.0422525
54.4834
61.0374
-0.0398435
55.2452
64.3256
-0.040585
56.262
67.3633
-0.0431323
57.5538
70.1499
-0.0466386
59.1479
72.6728
-0.0510287
61.0772
74.9014
-0.0558698
63.372
76.7793
-0.060488
66.0449
78.2161
-0.0642507
69.0619
79.0792
-0.0649993
72.2877
79.1951
-0.0583467
75.4073
78.3727
-0.0362074
77.8512
76.4714
0.0182671
39.8038
73.5309
0.144552
2.37128
71.7032
0.302881
3.63615
71.2434
0.396003
4.5214
70.5339
0.466681
5.06452
69.7391
0.504867
5.38251
68.9973
0.429055
5.43761
68.3711
0.0626991
4.99551
67.8393
-0.608365
3.75843
67.3741
-1.13009
1.97475
67.0547
-0.700803
66.8948
-0.398183
0.474237
32.45
0.00387613
0.909478
32.4032
0.00695617
1.26853
32.313
0.0125726
1.51945
32.1854
0.0204604
1.63748
32.0292
0.0305376
1.60754
31.856
0.0430091
1.42771
31.6807
0.058365
1.11456
31.5216
0.0772088
0.714582
31.4004
0.0990469
17.6089
31.3419
0.116224
62.2892
33.3736
-1.65125
59.9692
37.6886
-0.574015
58.9471
41.9777
-0.225224
58.2138
46.1658
-0.115495
57.7279
50.1766
-0.0660494
57.4936
53.965
-0.0422525
57.5088
57.5088
-0.030897
57.7716
60.8001
-0.0258093
58.2829
63.838
-0.0241947
59.0485
66.6222
-0.0244651
60.0767
69.1478
-0.0256263
61.3765
71.4008
-0.0275474
62.9552
73.3529
-0.0297527
64.8087
74.9582
-0.0315976
66.908
76.1499
-0.0326339
69.1778
76.8409
-0.0313492
71.4652
76.9328
-0.0247295
73.506
76.3393
-0.00724873
74.9107
75.0329
0.0339425
37.9762
73.1076
0.133608
1.91145
71.9566
0.270809
2.92671
71.6761
0.379339
3.72655
71.2578
0.459397
4.32277
70.8005
0.483044
4.75627
70.3822
0.345207
4.90585
70.0073
-0.12222
4.53027
69.6779
-0.819152
3.43902
69.3789
-1.21499
1.81484
69.1836
-0.652825
69.086
-0.38789
0.427374
33.3915
0.014673
0.819251
33.3762
0.0177713
1.141
33.3472
0.0234271
1.36327
33.3064
0.0314423
1.46426
33.2561
0.041896
1.4322
33.1998
0.0551713
1.26863
33.1417
0.0719897
0.993354
33.0877
0.0932076
0.656053
33.0464
0.118391
19.6406
33.031
0.138748
66.6042
35.1345
-1.88064
64.2583
39.2141
-0.640654
63.1352
43.2627
-0.249363
62.2245
47.1988
-0.124742
61.5164
50.9524
-0.0678772
61.0374
54.4834
-0.0398436
60.8001
57.7716
-0.0258094
60.8094
60.8094
-0.0188173
61.0671
63.5957
-0.0156922
61.5742
66.1298
-0.0146241
62.3296
68.4075
-0.0145034
63.3286
70.4172
-0.0151703
64.5605
72.1375
-0.0161572
66.0005
73.5357
-0.0169088
67.5991
74.5686
-0.0171681
69.2696
75.1862
-0.0159835
70.8718
75.342
-0.0114868
72.1996
75.0114
-0.000100876
72.9854
74.2196
0.0272686
36.8251
73.0739
0.0977754
1.63095
72.425
0.203161
2.50847
72.2747
0.33032
3.26925
72.0731
0.416013
3.90439
71.8758
0.410846
4.38138
71.7092
0.192782
4.57652
71.5476
-0.347423
4.23119
71.4049
-1.04174
3.24375
71.2842
-1.26424
1.71727
71.2114
-0.609992
71.1762
-0.380237
0.41213
34.3117
0.0237818
0.790227
34.3279
0.0270335
1.10014
34.3598
0.032949
1.31306
34.405
0.0413893
1.40792
34.4598
0.052563
1.37407
34.5188
0.067035
1.21468
34.5756
0.0857742
0.952007
34.6238
0.109919
0.640644
34.6594
0.139107
21.7442
34.6855
0.163237
70.6838
36.8839
-2.13243
68.3068
40.8108
-0.711188
67.0713
44.6901
-0.276832
65.9781
48.4263
-0.136951
65.0474
51.9553
-0.072635
64.3256
55.2452
-0.0405851
63.838
58.283
-0.0241947
63.5957
61.0671
-0.0156922
63.6013
63.6013
-0.0115003
63.8519
65.8887
-0.00961062
64.3393
67.9291
-0.00880791
65.0489
69.7162
-0.0088935
65.9588
71.2367
-0.00941731
67.0333
72.471
-0.00993378
68.2167
73.3952
-0.0103718
69.4254
73.9872
-0.0103009
70.5411
74.2349
-0.0089676
71.4078
74.1493
-0.00495354
71.8398
73.7817
0.00563701
36.1762
73.2416
0.0359319
1.48071
72.9775
0.0864447
2.30683
72.9392
0.230464
3.07193
72.917
0.314172
3.73785
72.933
0.265259
4.21979
72.9666
-0.0382924
4.43376
73.0213
-0.609914
4.11054
73.0761
-1.2642
3.17094
73.1481
-1.26679
1.68205
73.2002
-0.576085
73.2292
-0.375343
0.428338
35.1844
0.0318938
0.822062
35.2338
0.0353894
1.14539
35.33
0.0417187
1.36787
35.4668
0.0507898
1.46691
35.634
0.062933
1.43083
35.8171
0.0789042
1.26288
35.9983
0.0999422
0.987593
36.1578
0.127498
0.666768
36.2778
0.161275
23.9425
36.3499
0.18958
74.6107
38.6684
-2.41096
72.1861
42.5222
-0.787181
70.8074
46.2959
-0.3079
69.5072
49.8757
-0.151493
68.3373
53.2044
-0.0792826
67.3633
56.262
-0.0431324
66.6222
59.0485
-0.0244651
66.1298
61.5742
-0.0146241
65.8887
63.8519
-0.00961062
65.8923
65.8924
-0.00719526
66.1264
67.7013
-0.00604012
66.5694
69.2788
-0.00588903
67.193
70.6191
-0.00631847
67.9576
71.7131
-0.00701742
68.8087
72.5519
-0.00811953
69.6731
73.1322
-0.00976163
70.4555
73.4643
-0.0123726
71.0403
73.5814
-0.017121
71.2997
73.5493
-0.0270184
35.912
73.4782
-0.049958
1.44244
73.5106
-0.0798085
2.28463
73.5719
0.0666598
3.08787
73.7162
0.136287
3.77145
73.926
0.0365343
4.27455
74.1812
-0.311549
4.48858
74.4661
-0.895321
4.18253
74.7482
-1.47548
3.22305
75.0261
-1.22319
1.711
75.2128
-0.552077
75.311
-0.373316
0.477726
35.9804
0.0394835
0.918298
36.0665
0.043286
1.28221
36.2346
0.0501362
1.53502
36.4746
0.0599789
1.65006
36.7701
0.0732684
1.61205
37.0974
0.0909643
1.4224
37.4257
0.114601
1.10757
37.7192
0.14598
0.738822
37.9426
0.184863
26.2611
38.0716
0.217696
78.4645
40.5407
-2.72061
75.9598
44.4073
-0.870751
74.3872
48.136
-0.342957
72.8359
51.5934
-0.168069
71.3948
54.7329
-0.0871945
70.1499
57.5538
-0.0466387
69.1478
60.0767
-0.0256264
68.4075
62.3296
-0.0145034
67.9291
64.3393
-0.00880792
67.7013
66.1264
-0.00604012
67.7038
67.7038
-0.00474825
67.9097
69.0772
-0.00459153
68.287
70.2466
-0.00516905
68.7964
71.2099
-0.00634663
69.389
71.9674
-0.00848075
70.0052
72.528
-0.0122668
70.5725
72.9162
-0.0193883
71.0082
73.1797
-0.0340582
71.2286
73.3965
-0.0674949
35.9444
73.6824
-0.152805
1.5038
73.9495
-0.277366
2.42886
74.106
-0.14718
3.29766
74.419
-0.105825
4.0267
74.8528
-0.23962
4.55946
75.3676
-0.61015
4.77065
75.9232
-1.19172
4.4604
76.4776
-1.66451
3.40978
76.9778
-1.15088
1.80921
77.3166
-0.537443
77.493
-0.374194
0.563882
36.6666
0.046903
1.08636
36.7948
0.0510569
1.52221
37.0457
0.0584951
1.8305
37.4065
0.069198
1.97733
37.8554
0.0837441
1.94036
38.3593
0.10331
1.71598
38.8731
0.129754
1.33096
39.3407
0.165267
0.867763
39.7022
0.209694
28.7302
39.9089
0.247668
82.3312
42.5661
-3.06715
79.6884
46.5488
-0.965005
77.8446
50.2929
-0.382933
75.9755
53.6482
-0.187054
74.2157
56.5893
-0.0964276
72.6728
59.148
-0.0510288
71.4008
61.3765
-0.0275474
70.4172
63.3286
-0.0151703
69.7162
65.0489
-0.00889351
69.2788
66.5694
-0.00588902
69.0771
67.9097
-0.00459153
69.0791
69.0791
-0.00457827
69.2503
70.0802
-0.00546625
69.5539
70.9133
-0.00729631
69.9496
71.5821
-0.0106737
70.3934
72.101
-0.0169031
70.8361
72.5024
-0.0290202
71.225
72.8452
-0.054564
71.5145
73.2208
-0.113881
36.2115
73.7593
-0.268418
1.66028
74.2078
-0.499097
2.74182
74.4819
-0.386483
3.73149
75.0004
-0.37346
4.54153
75.7087
-0.536102
5.11501
76.5429
-0.925469
5.32506
77.4376
-1.49107
4.96065
78.3216
-1.8139
3.74855
79.072
-1.07469
1.98565
79.5878
-0.530882
79.8555
-0.377771
0.692042
37.2042
0.0544366
1.33725
37.3808
0.0589703
1.88303
37.7282
0.0670301
2.27938
38.2328
0.0786292
2.48129
38.8693
0.0944718
2.45416
39.5968
0.11596
2.18358
40.3544
0.145295
1.69247
41.0601
0.18509
1.07442
41.6181
0.235291
31.3874
41.9392
0.27903
86.3139
44.8349
-3.45717
83.4325
49.0708
-1.073
81.2
52.8899
-0.428701
78.9166
56.1389
-0.208519
76.7744
58.8388
-0.106697
74.9014
61.0773
-0.0558699
73.3529
62.9553
-0.0297528
72.1375
64.5606
-0.0161572
71.2367
65.9588
-0.00941731
70.6191
67.193
-0.00631846
70.2465
68.2871
-0.00516904
70.0802
69.2504
-0.00546623
70.0834
70.0835
-0.0068766
70.2227
70.7834
-0.00960984
70.4685
71.3508
-0.0145319
70.7948
71.798
-0.0235781
71.1789
72.1593
-0.0412009
71.6006
72.5015
-0.0784178
72.053
72.9335
-0.165336
36.6599
73.6126
-0.394378
1.93439
74.1902
-0.741002
3.26035
74.6194
-0.648859
4.43978
75.4107
-0.662179
5.37576
76.4801
-0.851032
6.00967
77.7299
-1.25589
6.2091
79.0576
-1.78791
5.71102
80.3398
-1.89981
4.26438
81.3865
-1.01066
2.25331
82.1141
-0.530239
82.4912
-0.383216
0.868579
37.5477
0.0623471
1.68473
37.7791
0.0672696
2.38762
38.2379
0.075953
2.91586
38.9124
0.0884288
3.20876
39.7785
0.105527
3.21173
40.7917
0.128875
2.88935
41.877
0.161025
2.25043
42.9208
0.205009
1.3955
43.7726
0.260839
34.2831
44.2731
0.31056
90.5498
47.4851
-3.89813
87.2516
52.1708
-1.19829
84.449
56.1139
-0.480989
81.6165
59.2032
-0.232192
79.0129
61.5606
-0.117396
76.7794
63.372
-0.0604881
74.9582
64.8088
-0.0315976
73.5357
66.0005
-0.0169088
72.471
67.0334
-0.00993377
71.7131
67.9577
-0.00701739
71.2099
68.7964
-0.00634659
70.9133
69.5539
-0.00729626
70.7833
70.2228
-0.00960981
70.7901
70.7901
-0.0136526
70.9157
71.2455
-0.0205783
71.1562
71.5902
-0.0329742
71.521
71.8506
-0.0567267
72.0326
72.0958
-0.106404
72.7321
72.4562
-0.222406
37.2375
73.1375
-0.530397
2.36356
73.7882
-1.00148
4.05167
74.4299
-0.935253
5.50917
75.5994
-0.974832
6.62552
77.1604
-1.18847
7.33736
78.9601
-1.60419
7.49132
80.8375
-2.07482
6.75772
82.5997
-1.90736
4.99204
84.0111
-0.962394
2.63033
84.9985
-0.532681
85.5096
-0.388719
1.10002
37.6447
0.0709076
2.14351
37.9361
0.0762121
3.06213
38.5186
0.0854824
3.78199
39.3881
0.0987558
4.22194
40.5293
0.116974
4.29705
41.9043
0.14198
3.93309
43.4328
0.176666
3.10226
44.9681
0.22446
1.896
46.2804
0.285403
37.4951
47.0813
0.340356
95.2354
50.7534
-4.39954
91.1947
56.1853
-1.34557
87.5383
60.2542
-0.540316
83.9739
63.0245
-0.257478
80.8243
64.8384
-0.127726
78.2161
66.045
-0.0642508
76.1499
66.9081
-0.032634
74.5686
67.5991
-0.0171681
73.3952
68.2168
-0.0103718
72.5519
68.8088
-0.00811945
71.9674
69.3891
-0.00848066
71.5821
69.9497
-0.0106736
71.3507
70.4685
-0.0145318
71.2455
70.9158
-0.0205782
71.2604
71.2605
-0.0302756
71.4166
71.4802
-0.0468704
71.7662
71.578
-0.0776894
72.393
71.6097
-0.140982
73.4134
71.7239
-0.28811
37.8882
72.2053
-0.680431
3.00532
72.8539
-1.28595
5.22113
73.8031
-1.25252
7.07016
75.5121
-1.32048
8.4252
77.7496
-1.55787
9.21482
80.2746
-1.9736
9.25345
82.8439
-2.33477
8.16915
85.1869
-1.84845
5.97944
87.054
-0.927453
3.14149
88.3641
-0.534549
89.0418
-0.390991
1.39138
37.4379
0.0804375
2.72605
37.7903
0.0861014
3.93158
38.5017
0.0958804
4.92326
39.582
0.109802
5.59691
41.0374
0.128896
5.82551
42.8553
0.155197
5.46846
44.9748
0.191906
4.4145
47.2343
0.242843
2.6969
49.3021
0.308147
41.1672
50.6485
0.366387
100.667
55.1112
-4.97609
95.2636
61.7339
-1.52067
90.3086
65.7588
-0.605361
85.7877
67.8261
-0.281565
82.0309
68.7306
-0.134979
79.0792
69.0619
-0.0649994
76.8409
69.1779
-0.0313493
75.1862
69.2697
-0.0159835
73.9872
69.4255
-0.0103008
73.1322
69.6731
-0.00976147
72.528
70.0052
-0.0122666
72.1009
70.3934
-0.0169029
71.798
70.7949
-0.0235779
71.5902
71.1562
-0.0329739
71.4802
71.4167
-0.0468702
71.5144
71.5145
-0.0691794
71.7978
71.4029
-0.108717
72.5072
71.0879
-0.187602
73.8948
70.7049
-0.368693
38.5369
70.6411
-0.851561
3.95456
71.1451
-1.60319
6.93015
72.5749
-1.61362
9.30764
75.0788
-1.71366
10.9502
78.2516
-1.96937
11.7841
81.7244
-2.35693
11.5965
85.1573
-2.53178
10.0362
88.2104
-1.75248
7.28954
90.6466
-0.899349
3.81926
92.3589
-0.529479
93.2445
-0.383692
1.74374
36.8688
0.0913524
3.43747
37.2764
0.0973317
5.0119
38.1077
0.107501
6.37862
39.3935
0.121845
7.41483
41.1761
0.141451
7.94499
43.4986
0.1685
7.728
46.3712
0.206475
6.48229
49.6881
0.259632
4.04333
53.0478
0.328492
45.6299
55.4976
0.387904
107.29
61.6989
-5.65896
99.2885
70.0259
-1.73105
92.3758
73.282
-0.66918
86.6923
73.8053
-0.296518
82.3622
73.1942
-0.133057
79.1951
72.2877
-0.0583469
76.9328
71.4653
-0.0247295
75.342
70.8718
-0.0114867
74.2349
70.5412
-0.00896737
73.4643
70.4556
-0.0123723
72.9162
70.5726
-0.0193879
72.5024
70.8361
-0.0290197
72.1593
71.1789
-0.0412004
71.8506
71.5211
-0.0567261
71.578
71.7663
-0.0776888
71.4028
71.7979
-0.108717
71.4828
71.4829
-0.160093
72.1242
70.704
-0.257378
73.831
69.4719
-0.473726
39.0409
68.2087
-1.04514
5.38437
68.2144
-1.93948
9.43408
70.479
-2.01892
12.4804
74.2043
-2.15723
14.423
78.6748
-2.41422
15.217
83.3698
-2.71622
14.6496
87.8686
-2.61045
12.4724
91.7968
-1.63658
9.00184
94.9424
-0.863796
4.70488
97.1571
-0.504789
98.3032
-0.354125
2.1513
35.885
0.104212
4.26876
36.3325
0.110444
6.29766
37.2537
0.120841
8.16127
38.7032
0.135309
9.73728
40.7707
0.154941
10.8177
43.5874
0.182004
11.0449
47.319
0.220234
9.84201
52.0941
0.274513
6.49309
57.7041
0.346586
51.8312
62.6987
0.407806
115.617
73.9934
-6.51678
102.545
83.4448
-1.97639
92.8992
83.5647
-0.706572
86.0811
80.9052
-0.283038
81.4557
77.9296
-0.109548
78.3727
75.4073
-0.0362076
76.3393
73.5061
-0.00724869
75.0114
72.1996
-0.000100615
74.1493
71.4079
-0.00495306
73.5814
71.0404
-0.0171203
73.1797
71.0083
-0.0340573
72.8452
71.2251
-0.0545629
72.5015
71.6007
-0.0784166
72.0958
72.0327
-0.106402
71.6096
72.393
-0.140981
71.0878
72.5072
-0.187601
70.7039
72.1243
-0.257377
70.8922
70.8923
-0.376477
72.5678
68.4174
-0.620956
39.0465
64.7001
-1.24327
7.64904
63.1765
-2.20746
13.1593
67.1033
-2.40449
16.9509
72.7858
-2.59478
19.118
79.0449
-2.82234
19.7159
85.279
-2.95574
18.5778
91.0703
-2.51545
15.618
96.0798
-1.49154
11.2165
100.11
-0.794272
5.85099
102.956
-0.436232
104.432
-0.27803
2.59882
34.4495
0.119777
5.18994
34.9117
0.126183
7.74716
35.8688
0.136612
10.2288
37.393
0.150847
12.554
39.6145
0.169915
14.5493
42.7592
0.19608
15.82
47.2196
0.233281
15.4521
53.658
0.287366
11.4877
62.9703
0.363161
63.1259
74.7215
0.433863
125.068
105.242
-7.5773
102.665
105.946
-2.17009
90.2397
96.5287
-0.634434
83.1054
88.2341
-0.196697
78.9335
82.1413
-0.0394988
76.4715
77.8513
0.0182669
75.0329
74.9108
0.0339427
74.2196
72.9855
0.0272692
73.7817
71.8398
0.00563807
73.5493
71.2997
-0.0270169
73.3965
71.2286
-0.0674929
73.2208
71.5146
-0.113879
72.9335
72.0531
-0.165333
72.4561
72.7322
-0.222403