/*--------------------------------*- C++ -*----------------------------------*\
| =========                 |                                                 |
| \\      /  F ield         | OpenFOAM: The Open Source CFD Toolbox           |
|  \\    /   O peration     | Version:  2.1.0                                 |
|   \\  /    A nd           | Web:      www.OpenFOAM.org                      |
|    \\/     M anipulation  |                                                 |
\*---------------------------------------------------------------------------*/
FoamFile
{
    version     2.0;
    format      ascii;
    class       volScalarField;
    location    "28105";
    object      pw;
}
// * * * * * * * * * * * * * * * * * * * * * * * * * * * * * * * * * * * * * //

dimensions      [1 -1 -2 0 0 0 0];

internalField   nonuniform List<scalar> 
8000
(
13175.4
13162.8
13141.7
13116.1
13088.5
13060.5
13032.5
13004.9
12977.4
12950
12922.5
12894.6
12866.2
12837.3
12807.5
12776.9
12745.4
12712.9
12679.5
12645.2
12610
12574.1
12537.4
12500.2
12462.6
12425
12387.6
12350.7
12314.8
12280.4
12247.8
12217.6
12190.1
12165.6
12144.3
12126.3
12111.5
12099.7
12091
12086.5
13162.8
13151.6
13132.4
13108.5
13082.5
13055.6
13028.6
13001.7
12974.9
12947.9
12920.8
12893.3
12865.2
12836.4
12806.8
12776.3
12744.9
12712.5
12679.1
12644.8
12609.6
12573.5
12536.7
12499.3
12461.5
12423.6
12385.8
12348.5
12312.2
12277.3
12244.3
12213.7
12185.9
12161.1
12139.7
12121.6
12106.6
12094.7
12086.1
12081.5
13141.7
13132.4
13115.9
13094.9
13071.3
13046.5
13021.2
12995.7
12970
12944
12917.6
12890.8
12863.2
12834.8
12805.5
12775.3
12744
12711.7
12678.3
12644
12608.6
12572.4
12535.4
12497.6
12459.4
12420.9
12382.4
12344.3
12307
12271.1
12237.2
12205.8
12177.3
12152.1
12130.3
12111.9
12096.9
12084.9
12076.2
12071.6
13116.1
13108.5
13094.9
13076.9
13056.2
13034
13010.8
12987.1
12963
12938.4
12913.1
12887.2
12860.3
12832.6
12803.7
12773.8
12742.7
12710.5
12677.2
12642.8
12607.4
12570.9
12533.5
12495.2
12456.3
12416.9
12377.4
12338
12299.3
12261.9
12226.5
12193.8
12164.3
12138.3
12116
12097.3
12082.1
12070
12061.3
12056.7
13088.5
13082.5
13071.3
13056.2
13038.5
13018.9
12998.2
12976.6
12954.3
12931.3
12907.5
12882.7
12856.9
12829.8
12801.5
12772
12741.2
12709.2
12675.9
12641.5
12605.8
12569.1
12531.2
12492.3
12452.6
12412
12371
12329.8
12289
12249.4
12211.9
12177.3
12146.5
12119.6
12096.7
12077.7
12062.3
12050.1
12041.3
12036.8
13060.5
13055.6
13046.5
13034
13018.9
13002
12983.7
12964.5
12944.4
12923.3
12901.1
12877.8
12853
12826.8
12799.1
12770
12739.6
12707.7
12674.5
12640
12604.2
12567.1
12528.7
12489.1
12448.3
12406.4
12363.6
12320.1
12276.5
12233.7
12193.1
12156.1
12123.5
12095.5
12072.1
12052.8
12037.3
12025.1
12016.4
12011.9
13032.5
13028.6
13021.2
13010.8
12998.2
12983.7
12968
12951.2
12933.4
12914.5
12894.3
12872.5
12849
12823.7
12796.8
12768.1
12738
12706.3
12673.1
12638.6
12602.6
12565.1
12526.3
12485.9
12444
12400.6
12355.6
12309.3
12261.9
12214.7
12169.6
12129.2
12094.6
12065.6
12041.8
12022.5
12007.1
11995.1
11986.4
11982
13004.9
13001.7
12995.7
12987.1
12976.6
12964.5
12951.2
12936.8
12921.6
12905.3
12887.5
12867.5
12845.3
12821
12794.6
12766.4
12736.5
12705
12671.9
12637.3
12601.1
12563.4
12524.1
12483
12440.1
12395.1
12347.9
12298.2
12246.1
12192.5
12140.1
12095.3
12058.8
12029.3
12005.6
11986.6
11971.6
11959.9
11951.5
11947.1
12977.4
12974.9
12970
12963
12954.3
12944.4
12933.4
12921.6
12909.2
12896
12881.2
12863.3
12842.3
12818.8
12792.9
12765.1
12735.4
12704
12671
12636.3
12600
12562.1
12522.4
12480.8
12437
12390.7
12341.4
12288.4
12230.7
12167.7
12101.9
12052.1
12014.7
11985.9
11963.1
11945.1
11930.9
11919.7
11911.7
11907.6
12950
12947.9
12944
12938.4
12931.3
12923.3
12914.5
12905.3
12896
12886.7
12876.6
12860.6
12840.5
12817.5
12791.9
12764.3
12734.7
12703.4
12670.3
12635.6
12599.3
12561.2
12521.3
12479.4
12435.1
12388
12337.4
12281.9
12219.2
12144.5
12046.5
11995.3
11960.9
11935
11914.6
11898.2
11885.1
11874.8
11867.3
11863.4
12922.5
12920.8
12917.6
12913.1
12907.5
12901.1
12894.3
12887.5
12881.2
12876.6
12872.7
12853.3
12830.9
12805.8
12778.3
12748.6
12717.1
12683.7
12648.6
12611.7
12573
12532.5
12489.9
12445.1
12397.6
12346.9
12291.7
12230
12156
12050.8
11942.1
11920.2
11897.4
11877.4
11860.4
11846.4
11834.8
11825.4
11818.6
11815
12894.6
12893.3
12890.8
12887.2
12882.7
12877.8
12872.5
12867.5
12863.3
12860.6
12853.3
12821.9
12791
12759
12725.7
12691
12654.8
12617.1
12577.9
12537.1
12494.6
12450.2
12403.6
12354.5
12302.4
12246.2
12184.5
12114.4
12031
11925
11855.7
11844.4
11829.9
11815.3
11802
11790.3
11780.3
11772
11765.9
11762.7
12866.2
12865.2
12863.2
12860.3
12856.9
12853
12849
12845.3
12842.3
12840.5
12830.9
12791
12752.7
12714.4
12675.4
12635.7
12594.8
12552.9
12509.6
12464.9
12418.6
12370.5
12320.2
12267.3
12211.2
12150.9
12085.2
12011.9
11928.3
11831.8
11777.3
11770.7
11761.1
11750.6
11740.3
11730.8
11722.4
11715
11709.6
11706.8
12837.3
12836.4
12834.8
12832.6
12829.8
12826.8
12823.7
12821
12818.8
12817.5
12805.8
12759
12714.4
12670.2
12625.9
12581.2
12535.9
12489.7
12442.5
12394.1
12344.2
12292.6
12239
12182.8
12123.6
12060.6
11992.8
11919
11838.1
11749.8
11702.8
11698.5
11691.9
11684.2
11676.3
11668.6
11661.4
11655
11650.2
11647.7
12807.5
12806.8
12805.5
12803.7
12801.5
12799.1
12796.8
12794.6
12792.9
12791.9
12778.3
12725.7
12675.4
12625.9
12576.6
12527.3
12477.7
12427.5
12376.5
12324.6
12271.4
12216.7
12160.1
12101.2
12039.7
11974.8
11906.1
11832.9
11755
11672.8
11630.2
11627.1
11622.3
11616.5
11610.3
11604
11597.8
11592.2
11588
11585.8
12776.9
12776.3
12775.3
12773.8
12772
12770
12768.1
12766.4
12765.1
12764.3
12748.6
12691
12635.7
12581.2
12527.3
12473.6
12419.9
12366
12311.5
12256.3
12200
12142.4
12083.3
12022.2
11958.8
11892.8
11823.7
11751.4
11676
11598.2
11558.4
11556
11552.4
11547.9
11542.8
11537.4
11532
11527
11523.2
11521.2
12745.4
12744.9
12744
12742.7
12741.2
12739.6
12738
12736.5
12735.4
12734.7
12717.1
12654.8
12594.8
12535.9
12477.7
12419.9
12362.5
12304.9
12247.2
12188.9
12129.8
12069.8
12008.4
11945.4
11880.6
11813.7
11744.5
11673.1
11599.6
11524.7
11486.7
11484.8
11481.8
11478.1
11473.8
11469
11464.1
11459.6
11456.2
11454.3
12712.9
12712.5
12711.7
12710.5
12709.2
12707.7
12706.3
12705
12704
12703.4
12683.7
12617.1
12552.9
12489.7
12427.5
12366
12304.9
12244.1
12183.3
12122.3
12060.7
11998.4
11935
11870.5
11804.5
11736.9
11667.6
11596.7
11524.5
11451.5
11414.7
11413.1
11410.6
11407.3
11403.4
11399
11394.5
11390.2
11387
11385.3
12679.5
12679.1
12678.3
12677.2
12675.9
12674.5
12673.1
12671.9
12671
12670.3
12648.6
12577.9
12509.6
12442.5
12376.5
12311.5
12247.2
12183.3
12119.7
12056.1
11992.3
11927.9
11862.9
11796.9
11729.9
11661.7
11592.3
11521.7
11450.3
11378.5
11342.3
11340.8
11338.5
11335.4
11331.7
11327.5
11323
11318.9
11315.8
11314.1
12645.2
12644.8
12644
12642.8
12641.5
12640
12638.6
12637.3
12636.3
12635.6
12611.7
12537.1
12464.9
12394.1
12324.6
12256.3
12188.9
12122.3
12056.1
11990.2
11924.4
11858.2
11791.7
11724.5
11656.5
11587.7
11518
11447.6
11376.5
11305.2
11269.3
11267.9
11265.6
11262.5
11258.7
11254.5
11250
11245.8
11242.6
11240.9
12610
12609.6
12608.6
12607.4
12605.8
12604.2
12602.6
12601.1
12600
12599.3
12573
12494.6
12418.6
12344.2
12271.4
12200
12129.8
12060.7
11992.3
11924.4
11856.7
11789
11721
11652.8
11584
11514.6
11444.6
11374
11303
11231.8
11195.8
11194.3
11191.9
11188.6
11184.6
11180
11175.2
11170.8
11167.4
11165.5
12574.1
12573.5
12572.4
12570.9
12569.1
12567.1
12565.1
12563.4
12562.1
12561.2
12532.5
12450.2
12370.5
12292.6
12216.7
12142.4
12069.8
11998.4
11927.9
11858.2
11789
11719.9
11650.8
11581.5
11512
11442
11371.6
11300.8
11229.6
11158.1
11121.9
11120.2
11117.5
11113.7
11109.2
11104.1
11098.7
11093.8
11090
11088
12537.4
12536.7
12535.4
12533.5
12531.2
12528.7
12526.3
12524.1
12522.4
12521.3
12489.9
12403.6
12320.2
12239
12160.1
12083.3
12008.4
11935
11862.9
11791.7
11721
11650.8
11580.7
11510.6
11440.4
11369.9
11299.1
11228
11156.4
11084.3
11047.7
11045.7
11042.5
11038
11032.6
11026.6
11020.4
11014.7
11010.4
11008.2
12500.2
12499.3
12497.6
12495.2
12492.3
12489.1
12485.9
12483
12480.8
12479.4
12445.1
12354.5
12267.3
12182.8
12101.2
12022.2
11945.4
11870.5
11796.9
11724.5
11652.8
11581.5
11510.6
11439.8
11369.1
11298.1
11227
11155.5
11083.4
11010.7
10973.5
10971.1
10967
10961.5
10954.9
10947.6
10940.1
10933.3
10928.3
10925.7
12462.6
12461.5
12459.4
12456.3
12452.6
12448.3
12444
12440.1
12437
12435.1
12397.6
12302.4
12211.2
12123.6
12039.7
11958.8
11880.6
11804.5
11729.9
11656.5
11584
11512
11440.4
11369.1
11297.8
11226.6
11155.1
11083.4
11011
10937.6
10899.7
10896.7
10891.4
10884.4
10876
10866.7
10857.5
10849.3
10843.3
10840.2
12425
12423.6
12420.9
12416.9
12412
12406.4
12400.6
12395.1
12390.7
12388
12346.9
12246.2
12150.9
12060.6
11974.8
11892.8
11813.7
11736.9
11661.7
11587.7
11514.6
11442
11369.9
11298.1
11226.6
11155.1
11083.6
11011.8
10939.3
10865.4
10826.8
10822.9
10815.9
10806.6
10795.7
10783.9
10772.3
10762.3
10755
10751.2
12387.6
12385.8
12382.4
12377.4
12371
12363.6
12355.6
12347.9
12341.4
12337.4
12291.7
12184.5
12085.2
11992.8
11906.1
11823.7
11744.5
11667.6
11592.3
11518
11444.6
11371.6
11299.1
11227
11155.1
11083.6
11012.2
10940.7
10868.5
10794.7
10755.7
10750.3
10740.9
10728.4
10714
10698.7
10684.1
10671.6
10662.6
10657.9
12350.7
12348.5
12344.3
12338
12329.8
12320.1
12309.3
12298.2
12288.4
12281.9
12230
12114.4
12011.9
11919
11832.9
11751.4
11673.1
11596.7
11521.7
11447.6
11374
11300.8
11228
11155.5
11083.4
11011.8
10940.7
10870
10799.1
10726.5
10687.5
10679.8
10666.7
10649.7
10630.6
10610.9
10592.3
10576.7
10565.5
10559.6
12314.8
12312.2
12307
12299.3
12289
12276.5
12261.9
12246.1
12230.7
12219.2
12156
12031
11928.3
11838.1
11755
11676
11599.6
11524.5
11450.3
11376.5
11303
11229.6
11156.4
11083.4
11011
10939.3
10868.5
10799.1
10730.7
10661.8
10624.3
10612.7
10593.9
10570.7
10545.3
10519.8
10496.2
10476.6
10462.5
10455.2
12280.4
12277.3
12271.1
12261.9
12249.4
12233.7
12214.7
12192.5
12167.7
12144.5
12050.8
11925
11831.8
11749.8
11672.8
11598.2
11524.7
11451.5
11378.5
11305.2
11231.8
11158.1
11084.3
11010.7
10937.6
10865.4
10794.7
10726.5
10661.8
10601.1
10570.1
10550.7
10523
10491.2
10457.8
10425
10395
10370.2
10352.5
10343.3
12247.8
12244.3
12237.2
12226.5
12211.9
12193.1
12169.6
12140.1
12101.9
12046.5
11942.1
11855.7
11777.3
11702.8
11630.2
11558.4
11486.7
11414.7
11342.3
11269.3
11195.8
11121.9
11047.7
10973.5
10899.7
10826.8
10755.7
10687.5
10624.3
10570.1
10533
10495
10454.1
10411.1
10367.6
10325.7
10287.8
10256.5
10234.1
10222.4
12217.6
12213.7
12205.8
12193.8
12177.3
12156.1
12129.2
12095.3
12052.1
11995.3
11920.2
11844.4
11770.7
11698.5
11627.1
11556
11484.8
11413.1
11340.8
11267.9
11194.3
11120.2
11045.7
10971.1
10896.7
10822.9
10750.3
10679.8
10612.7
10550.7
10495
10440.6
10385.5
10329.7
10274.3
10221.4
10173.7
10134.1
10105.7
10090.8
12190.1
12185.9
12177.3
12164.3
12146.5
12123.5
12094.6
12058.8
12014.7
11960.9
11897.4
11829.9
11761.1
11691.9
11622.3
11552.4
11481.8
11410.6
11338.5
11265.6
11191.9
11117.5
11042.5
10967
10891.4
10815.9
10740.9
10666.7
10593.9
10523
10454.1
10385.5
10316.3
10246.7
10177.8
10111.8
10051.9
10001.8
9965.51
9946.39
12165.6
12161.1
12152.1
12138.3
12119.6
12095.5
12065.6
12029.3
11985.9
11935
11877.4
11815.3
11750.6
11684.2
11616.5
11547.9
11478.1
11407.3
11335.4
11262.5
11188.6
11113.7
11038
10961.5
10884.4
10806.6
10728.4
10649.7
10570.7
10491.2
10411.1
10329.7
10246.7
10162.5
10078.5
9997.15
9922.28
9858.8
9812.18
9787.36
12144.3
12139.7
12130.3
12116
12096.7
12072.1
12041.8
12005.6
11963.1
11914.6
11860.4
11802
11740.3
11676.3
11610.3
11542.8
11473.8
11403.4
11331.7
11258.7
11184.6
11109.2
11032.6
10954.9
10876
10795.7
10714
10630.6
10545.3
10457.8
10367.6
10274.3
10177.8
10078.5
9977.85
9878.73
9785.71
9705.22
9644.96
9612.42
12126.3
12121.6
12111.9
12097.3
12077.7
12052.8
12022.5
11986.6
11945.1
11898.2
11846.4
11790.3
11730.8
11668.6
11604
11537.4
11469
11399
11327.5
11254.5
11180
11104.1
11026.6
10947.6
10866.7
10783.9
10698.7
10610.9
10519.8
10425
10325.7
10221.4
10111.8
9997.15
9878.73
9759.55
9644.95
9543.17
9465.05
9422.04
12111.5
12106.6
12096.9
12082.1
12062.3
12037.3
12007.1
11971.6
11930.9
11885.1
11834.8
11780.3
11722.4
11661.4
11597.8
11532
11464.1
11394.5
11323
11250
11175.2
11098.7
11020.4
10940.1
10857.5
10772.3
10684.1
10592.3
10496.2
10395
10287.8
10173.7
10051.9
9922.28
9785.71
9644.95
9505.8
9378.4
9277.61
9220.73
12099.7
12094.7
12084.9
12070
12050.1
12025.1
11995.1
11959.9
11919.7
11874.8
11825.4
11772
11715
11655
11592.2
11527
11459.6
11390.2
11318.9
11245.8
11170.8
11093.8
11014.7
10933.3
10849.3
10762.3
10671.6
10576.7
10476.6
10370.2
10256.5
10134.1
10001.8
9858.8
9705.22
9543.17
9378.4
9222.59
9095.04
9020.86
12091
12086.1
12076.2
12061.3
12041.3
12016.4
11986.4
11951.5
11911.7
11867.3
11818.6
11765.9
11709.6
11650.2
11588
11523.2
11456.2
11387
11315.8
11242.6
11167.4
11090
11010.4
10928.3
10843.3
10755
10662.6
10565.5
10462.5
10352.5
10234.1
10105.7
9965.51
9812.18
9644.96
9465.05
9277.61
9095.04
8940.47
8847.56
12086.5
12081.5
12071.6
12056.7
12036.8
12011.9
11982
11947.1
11907.6
11863.4
11815
11762.7
11706.8
11647.7
11585.8
11521.2
11454.3
11385.3
11314.1
11240.9
11165.5
11088
11008.2
10925.7
10840.2
10751.2
10657.9
10559.6
10455.2
10343.3
10222.4
10090.8
9946.39
9787.36
9612.42
9422.04
9220.73
9020.86
8847.56
8740.59
13196.1
13178.5
13152
13122.4
13092.3
13062.8
13033.9
13005.7
12977.9
12950.3
12922.7
12894.7
12866.3
12837.3
12807.5
12776.9
12745.4
12712.9
12679.5
12645.2
12610
12574
12537.3
12500.1
12462.6
12424.9
12387.5
12350.6
12314.7
12280.2
12247.6
12217.4
12189.9
12165.3
12144
12126.1
12111.4
12100.1
12091.8
12087
13178.5
13164
13140.9
13113.9
13085.8
13057.7
13029.9
13002.5
12975.4
12948.3
12921
12893.4
12865.3
12836.5
12806.8
12776.3
12744.9
12712.5
12679.1
12644.8
12609.5
12573.4
12536.6
12499.3
12461.5
12423.5
12385.7
12348.4
12312.1
12277.1
12244.1
12213.5
12185.6
12160.8
12139.4
12121.3
12106.6
12095.2
12086.8
12082.1
13152
13140.9
13122
13099
13073.9
13048.2
13022.3
12996.4
12970.4
12944.3
12917.8
12890.9
12863.3
12834.9
12805.5
12775.3
12744
12711.7
12678.3
12643.9
12608.6
12572.3
12535.3
12497.6
12459.3
12420.8
12382.3
12344.1
12306.9
12271
12237
12205.6
12177.1
12151.8
12130
12111.6
12096.8
12085.3
12076.9
12072.1
13122.4
13113.9
13099
13079.8
13058.2
13035.3
13011.7
12987.7
12963.4
12938.6
12913.3
12887.3
12860.4
12832.6
12803.7
12773.8
12742.7
12710.5
12677.2
12642.8
12607.3
12570.8
12533.4
12495.2
12456.2
12416.8
12377.2
12337.8
12299.1
12261.7
12226.3
12193.6
12164
12138
12115.7
12097
12082
12070.4
12062
12057.2
13092.3
13085.8
13073.9
13058.2
13039.8
13019.9
12998.8
12977
12954.6
12931.5
12907.6
12882.8
12856.9
12829.8
12801.5
12772
12741.2
12709.1
12675.9
12641.4
12605.8
12569
12531.1
12492.2
12452.4
12411.9
12370.8
12329.7
12288.9
12249.2
12211.7
12177.1
12146.2
12119.2
12096.3
12077.4
12062.2
12050.6
12042.1
12037.3
13062.8
13057.7
13048.2
13035.3
13019.9
13002.7
12984.2
12964.8
12944.6
12923.4
12901.2
12877.8
12853
12826.8
12799.1
12770
12739.5
12707.7
12674.4
12639.9
12604.1
12567
12528.6
12489
12448.2
12406.3
12363.4
12319.9
12276.3
12233.5
12192.9
12155.8
12123.2
12095.2
12071.7
12052.5
12037.2
12025.6
12017.2
12012.4
13033.9
13029.9
13022.3
13011.7
12998.8
12984.2
12968.3
12951.4
12933.5
12914.6
12894.4
12872.6
12849
12823.7
12796.7
12768.1
12737.9
12706.2
12673.1
12638.5
12602.4
12565
12526.1
12485.7
12443.9
12400.4
12355.4
12309
12261.7
12214.5
12169.3
12128.9
12094.3
12065.3
12041.4
12022.2
12007
11995.5
11987.2
11982.5
13005.7
13002.5
12996.4
12987.7
12977
12964.8
12951.4
12937
12921.7
12905.4
12887.5
12867.5
12845.3
12820.9
12794.6
12766.4
12736.5
12704.9
12671.8
12637.2
12601
12563.3
12523.9
12482.8
12439.9
12394.9
12347.6
12297.9
12245.8
12192.2
12139.8
12095
12058.5
12028.9
12005.2
11986.3
11971.5
11960.3
11952.3
11947.7
12977.9
12975.4
12970.4
12963.4
12954.6
12944.6
12933.5
12921.7
12909.3
12896
12881.2
12863.3
12842.3
12818.7
12792.9
12765
12735.3
12703.9
12670.8
12636.1
12599.8
12561.9
12522.2
12480.5
12436.7
12390.4
12341.1
12288
12230.3
12167.3
12101.5
12051.8
12014.4
11985.5
11962.8
11944.8
11930.8
11920.2
11912.5
11908.1
12950.3
12948.3
12944.3
12938.6
12931.5
12923.4
12914.6
12905.4
12896
12886.7
12876.6
12860.6
12840.5
12817.4
12791.9
12764.2
12734.6
12703.2
12670.2
12635.5
12599.1
12561
12521
12479.1
12434.8
12387.7
12337
12281.5
12218.7
12144
12046
11994.9
11960.5
11934.6
11914.2
11897.9
11885.1
11875.3
11868.1
11863.9
12922.7
12921
12917.8
12913.3
12907.6
12901.2
12894.4
12887.5
12881.2
12876.6
12873.2
12853.9
12831.8
12806.8
12779.5
12750.1
12718.7
12685.6
12650.7
12614.1
12575.8
12535.6
12493.4
12449
12402
12351.8
12297.4
12236.6
12163.6
12058.3
11941.8
11919.8
11897
11877
11860
11846
11834.8
11826
11819.4
11815.5
12894.7
12893.4
12890.9
12887.3
12882.8
12877.8
12872.6
12867.5
12863.3
12860.6
12853.9
12822.3
12791.3
12759.4
12726.2
12691.5
12655.4
12617.8
12578.6
12537.9
12495.4
12451.1
12404.7
12355.7
12303.7
12247.7
12186.2
12116.4
12033.2
11926.8
11855.4
11844.1
11829.5
11814.9
11801.5
11790
11780.4
11772.7
11766.7
11763.2
12866.3
12865.3
12863.3
12860.4
12856.9
12853
12849
12845.3
12842.3
12840.5
12831.8
12791.3
12752.9
12714.6
12675.6
12635.9
12595.1
12553.1
12509.9
12465.2
12419
12370.9
12320.6
12267.8
12211.7
12151.5
12085.8
12012.6
11929
11832
11777
11770.3
11760.7
11750.1
11739.8
11730.5
11722.5
11715.8
11710.4
11707.3
12837.3
12836.5
12834.9
12832.6
12829.8
12826.8
12823.7
12820.9
12818.7
12817.4
12806.8
12759.4
12714.6
12670.3
12626
12581.3
12536
12489.8
12442.7
12394.2
12344.4
12292.8
12239.2
12183.1
12123.9
12060.9
11993.1
11919.3
11838.3
11749.8
11702.5
11698.1
11691.4
11683.7
11675.8
11668.3
11661.6
11655.9
11651
11648.2
12807.5
12806.8
12805.5
12803.7
12801.5
12799.1
12796.7
12794.6
12792.9
12791.9
12779.5
12726.2
12675.6
12626
12576.7
12527.4
12477.7
12427.6
12376.6
12324.7
12271.5
12216.7
12160.2
12101.3
12039.8
11975
11906.2
11833
11755
11672.7
11629.9
11626.7
11621.9
11616
11609.9
11603.8
11598.2
11593.2
11588.7
11586.2
12776.9
12776.3
12775.3
12773.8
12772
12770
12768.1
12766.4
12765
12764.2
12750.1
12691.5
12635.9
12581.3
12527.4
12473.7
12420
12366
12311.5
12256.3
12200
12142.5
12083.3
12022.3
11958.9
11892.9
11823.8
11751.5
11676
11598
11558.1
11555.6
11551.9
11547.3
11542.4
11537.3
11532.6
11528.1
11523.9
11521.6
12745.4
12744.9
12744
12742.7
12741.2
12739.5
12737.9
12736.5
12735.3
12734.6
12718.7
12655.4
12595.1
12536
12477.7
12420
12362.5
12305
12247.2
12188.9
12129.9
12069.8
12008.4
11945.5
11880.7
11813.7
11744.6
11673.1
11599.5
11524.5
11486.4
11484.4
11481.4
11477.6
11473.4
11469.2
11464.9
11460.8
11456.8
11454.7
12712.9
12712.5
12711.7
12710.5
12709.1
12707.7
12706.2
12704.9
12703.9
12703.2
12685.6
12617.8
12553.1
12489.8
12427.6
12366
12305
12244.2
12183.3
12122.3
12060.7
11998.4
11935.1
11870.5
11804.5
11736.9
11667.6
11596.7
11524.5
11451.4
11414.5
11412.8
11410.2
11406.9
11403.2
11399.4
11395.5
11391.5
11387.6
11385.6
12679.5
12679.1
12678.3
12677.2
12675.9
12674.4
12673.1
12671.8
12670.8
12670.2
12650.7
12578.6
12509.9
12442.7
12376.6
12311.5
12247.2
12183.3
12119.7
12056.1
11992.3
11928
11862.9
11796.9
11729.9
11661.7
11592.3
11521.7
11450.3
11378.4
11342.2
11340.6
11338.2
11335.2
11331.7
11328.1
11324.3
11320.2
11316.3
11314.5
12645.2
12644.8
12643.9
12642.8
12641.4
12639.9
12638.5
12637.2
12636.1
12635.5
12614.1
12537.9
12465.2
12394.2
12324.7
12256.3
12188.9
12122.3
12056.1
11990.3
11924.4
11858.2
11791.7
11724.5
11656.5
11587.7
11518
11447.6
11376.6
11305.3
11269.4
11267.8
11265.5
11262.5
11259
11255.4
11251.4
11247
11243.1
11241.2
12610
12609.5
12608.6
12607.3
12605.8
12604.1
12602.4
12601
12599.8
12599.1
12575.8
12495.4
12419
12344.4
12271.5
12200
12129.9
12060.7
11992.3
11924.4
11856.7
11789
11721
11652.8
11584
11514.6
11444.6
11374
11303
11231.9
11196.1
11194.5
11192
11188.8
11185.2
11181.2
11176.9
11171.9
11167.9
11165.9
12574
12573.4
12572.3
12570.8
12569
12567
12565
12563.3
12561.9
12561
12535.6
12451.1
12370.9
12292.8
12216.7
12142.5
12069.8
11998.4
11928
11858.2
11789
11719.9
11650.8
11581.6
11512
11442.1
11371.7
11300.9
11229.7
11158.3
11122.4
11120.6
11117.8
11114.3
11110.1
11105.6
11100.6
11094.9
11090.6
11088.4
12537.3
12536.6
12535.3
12533.4
12531.1
12528.6
12526.1
12523.9
12522.2
12521
12493.4
12404.7
12320.6
12239.2
12160.2
12083.3
12008.4
11935.1
11862.9
11791.7
11721
11650.8
11580.7
11510.6
11440.4
11370
11299.2
11228
11156.5
11084.7
11048.4
11046.4
11043.1
11038.9
11033.9
11028.4
11022.3
11015.7
11011
11008.6
12500.1
12499.3
12497.6
12495.2
12492.2
12489
12485.7
12482.8
12480.5
12479.1
12449
12355.7
12267.8
12183.1
12101.3
12022.3
11945.5
11870.5
11796.9
11724.5
11652.8
11581.6
11510.6
11439.9
11369.1
11298.2
11227
11155.6
11083.7
11011.2
10974.5
10972
10968
10962.7
10956.5
10949.6
10942
10934.3
10928.9
10926.1
12462.6
12461.5
12459.3
12456.2
12452.4
12448.2
12443.9
12439.9
12436.7
12434.8
12402
12303.7
12211.7
12123.9
12039.8
11958.9
11880.7
11804.5
11729.9
11656.5
11584
11512
11440.4
11369.1
11297.8
11226.6
11155.2
11083.5
11011.3
10938.2
10901
10897.9
10892.8
10885.9
10877.9
10869.1
10859.3
10850.2
10843.9
10840.6
12424.9
12423.5
12420.8
12416.8
12411.9
12406.3
12400.4
12394.9
12390.4
12387.7
12351.8
12247.7
12151.5
12060.9
11975
11892.9
11813.7
11736.9
11661.7
11587.7
11514.6
11442.1
11370
11298.2
11226.6
11155.1
11083.7
11011.9
10939.6
10866.2
10828.4
10824.5
10817.6
10808.6
10798
10786.4
10774
10763.2
10755.5
10751.5
12387.5
12385.7
12382.3
12377.2
12370.8
12363.4
12355.4
12347.6
12341.1
12337
12297.4
12186.2
12085.8
11993.1
11906.2
11823.8
11744.6
11667.6
11592.3
11518
11444.6
11371.7
11299.2
11227
11155.2
11083.7
11012.3
10940.9
10869
10795.8
10757.6
10752.3
10743
10730.8
10716.7
10701.3
10685.7
10672.5
10663.1
10658.3
12350.6
12348.4
12344.1
12337.8
12329.7
12319.9
12309
12297.9
12288
12281.5
12236.6
12116.4
12012.6
11919.3
11833
11751.5
11673.1
11596.7
11521.7
11447.6
11374
11300.9
11228
11155.6
11083.5
11011.9
10940.9
10870.3
10799.7
10727.8
10689.7
10682.2
10669.2
10652.5
10633.5
10613.4
10593.8
10577.5
10565.9
10559.9
12314.7
12312.1
12306.9
12299.1
12288.9
12276.3
12261.7
12245.8
12230.3
12218.7
12163.6
12033.2
11929
11838.3
11755
11676
11599.5
11524.5
11450.3
11376.6
11303
11229.7
11156.5
11083.7
11011.3
10939.6
10869
10799.7
10731.5
10663.2
10626.5
10615.3
10596.7
10573.7
10548.2
10522
10497.5
10477.2
10462.8
10455.3
12280.2
12277.1
12271
12261.7
12249.2
12233.5
12214.5
12192.2
12167.3
12144
12058.3
11926.8
11832
11749.8
11672.7
11598
11524.5
11451.4
11378.4
11305.3
11231.9
11158.3
11084.7
11011.2
10938.2
10866.2
10795.8
10727.7
10663.2
10602.8
10572.1
10553
10525.7
10494
10460.3
10426.7
10396
10370.6
10352.5
10343.1
12247.6
12244.1
12237
12226.3
12211.7
12192.9
12169.3
12139.8
12101.5
12046
11941.8
11855.4
11777
11702.5
11629.9
11558.1
11486.4
11414.5
11342.2
11269.4
11196.1
11122.4
11048.4
10974.5
10901
10828.4
10757.6
10689.7
10626.5
10572.1
10534.7
10496.9
10456.2
10413.2
10369.4
10326.8
10288.2
10256.3
10233.5
10221.6
12217.4
12213.5
12205.6
12193.6
12177.1
12155.8
12128.9
12095
12051.8
11994.9
11919.8
11844.1
11770.3
11698.1
11626.7
11555.6
11484.4
11412.8
11340.6
11267.8
11194.5
11120.6
11046.4
10972
10897.9
10824.5
10752.3
10682.2
10615.3
10553
10496.9
10442.2
10387
10331
10275.2
10221.7
10173.2
10132.8
10103.8
10088.6
12189.9
12185.6
12177.1
12164
12146.2
12123.2
12094.3
12058.5
12014.4
11960.5
11897
11829.5
11760.7
11691.4
11621.9
11551.9
11481.4
11410.2
11338.2
11265.5
11192
11117.8
11043.1
10968
10892.8
10817.6
10743
10669.2
10596.7
10525.7
10456.2
10387
10317.3
10247.2
10177.7
10110.9
10049.9
9998.7
9961.52
9941.89
12165.3
12160.8
12151.8
12138
12119.2
12095.2
12065.3
12028.9
11985.5
11934.6
11877
11814.9
11750.1
11683.7
11616
11547.3
11477.6
11406.9
11335.2
11262.5
11188.8
11114.3
11038.9
10962.7
10885.9
10808.6
10730.8
10652.5
10573.7
10494
10413.2
10331
10247.2
10162.2
10077.1
9994.42
9917.84
9852.52
9804.26
9778.45
12144
12139.4
12130
12115.7
12096.3
12071.7
12041.4
12005.2
11962.8
11914.2
11860
11801.5
11739.8
11675.8
11609.9
11542.4
11473.4
11403.2
11331.7
11259
11185.2
11110.1
11033.9
10956.5
10877.9
10798
10716.7
10633.5
10548.2
10460.3
10369.4
10275.2
10177.7
10077.1
9974.81
9873.39
9777.39
9693.46
9629.94
9595.31
12126.1
12121.3
12111.6
12097
12077.4
12052.5
12022.2
11986.3
11944.8
11897.9
11846
11790
11730.5
11668.3
11603.8
11537.3
11469.2
11399.4
11328.1
11255.4
11181.2
11105.6
11028.4
10949.6
10869.1
10786.4
10701.3
10613.4
10522
10426.7
10326.8
10221.7
10110.9
9994.42
9873.39
9750.4
9630.53
9522.21
9437.46
9389.97
12111.4
12106.6
12096.8
12082
12062.2
12037.2
12007
11971.5
11930.8
11885.1
11834.8
11780.4
11722.5
11661.6
11598.2
11532.6
11464.9
11395.5
11324.3
11251.4
11176.9
11100.6
11022.3
10942
10859.3
10774
10685.7
10593.8
10497.5
10396
10288.2
10173.2
10049.9
9917.84
9777.39
9630.53
9482.31
9342.84
9228.83
9162.42
12100.1
12095.2
12085.3
12070.4
12050.6
12025.6
11995.5
11960.3
11920.2
11875.3
11826
11772.7
11715.8
11655.9
11593.2
11528.1
11460.8
11391.5
11320.2
11247
11171.9
11094.9
11015.7
10934.3
10850.2
10763.2
10672.5
10577.5
10477.2
10370.6
10256.3
10132.8
9998.7
9852.52
9693.46
9522.21
9342.84
9166.07
9013.68
8920.09
12091.8
12086.8
12076.9
12062
12042.1
12017.2
11987.2
11952.3
11912.5
11868.1
11819.4
11766.7
11710.4
11651
11588.7
11523.9
11456.8
11387.6
11316.3
11243.1
11167.9
11090.6
11011
10928.9
10843.9
10755.5
10663.1
10565.9
10462.8
10352.5
10233.5
10103.8
9961.52
9804.26
9629.94
9437.46
9228.83
9013.68
8817.15
8688.32
12087
12082.1
12072.1
12057.2
12037.3
12012.4
11982.5
11947.7
11908.1
11863.9
11815.5
11763.2
11707.3
11648.2
11586.2
11521.6
11454.7
11385.6
11314.5
11241.2
11165.9
11088.4
11008.6
10926.1
10840.6
10751.5
10658.3
10559.9
10455.3
10343.1
10221.6
10088.6
9941.89
9778.45
9595.31
9389.97
9162.42
8920.09
8688.32
8526.66
13247.5
13212.8
13172
13133.7
13098.7
13066.4
13036.1
13007
12978.8
12950.9
12923
12895
12866.5
12837.4
12807.6
12776.9
12745.4
12712.9
12679.5
12645.2
12610
12574
12537.3
12500.1
12462.5
12424.8
12387.4
12350.5
12314.5
12280.1
12247.5
12217.2
12189.6
12165.1
12143.8
12125.9
12111.5
12100.4
12092.4
12087.7
13212.8
13189
13156.7
13123.4
13091.4
13061
13031.9
13003.7
12976.1
12948.8
12921.3
12893.6
12865.4
12836.5
12806.9
12776.4
12744.9
12712.5
12679.1
12644.7
12609.5
12573.4
12536.6
12499.2
12461.4
12423.4
12385.6
12348.3
12311.9
12277
12243.9
12213.3
12185.4
12160.6
12139.1
12121.1
12106.6
12095.4
12087.5
12082.7
13172
13156.7
13132.9
13105.9
13078.3
13050.9
13023.9
12997.4
12971.1
12944.7
12918.1
12891.1
12863.4
12834.9
12805.6
12775.3
12744
12711.6
12678.3
12643.9
12608.5
12572.3
12535.2
12497.5
12459.2
12420.7
12382.1
12344
12306.7
12270.8
12236.9
12205.4
12176.8
12151.5
12129.7
12111.5
12096.8
12085.6
12077.6
12072.8
13133.7
13123.4
13105.9
13084.6
13061.3
13037.3
13013
12988.6
12963.9
12939
12913.5
12887.4
12860.5
12832.6
12803.7
12773.8
12742.7
12710.5
12677.1
12642.7
12607.2
12570.7
12533.3
12495.1
12456.1
12416.7
12377.1
12337.7
12298.9
12261.5
12226.1
12193.3
12163.8
12137.7
12115.4
12096.9
12082
12070.7
12062.7
12057.9
13098.7
13091.4
13078.3
13061.3
13042
13021.3
12999.8
12977.7
12955.1
12931.8
12907.8
12882.9
12857
12829.9
12801.5
12772
12741.1
12709.1
12675.8
12641.3
12605.7
12568.9
12531
12492.1
12452.3
12411.7
12370.7
12329.5
12288.7
12249
12211.5
12176.9
12145.9
12119
12096.1
12077.2
12062.2
12050.9
12042.8
12038
13066.4
13061
13050.9
13037.3
13021.3
13003.7
12984.9
12965.3
12944.9
12923.7
12901.4
12877.9
12853.1
12826.8
12799.1
12770
12739.5
12707.6
12674.4
12639.8
12604
12566.9
12528.5
12488.9
12448
12406.1
12363.2
12319.7
12276.1
12233.3
12192.6
12155.6
12122.9
12094.9
12071.4
12052.3
12037.2
12025.9
12017.8
12013.1
13036.1
13031.9
13023.9
13013
12999.8
12984.9
12968.8
12951.8
12933.8
12914.8
12894.5
12872.6
12849
12823.7
12796.7
12768
12737.8
12706.1
12673
12638.4
12602.3
12564.9
12526
12485.6
12443.7
12400.2
12355.2
12308.8
12261.5
12214.2
12169
12128.6
12094
12065
12041.1
12022
12007
11995.8
11987.9
11983.2
13007
13003.7
12997.4
12988.6
12977.7
12965.3
12951.8
12937.3
12921.9
12905.5
12887.6
12867.6
12845.3
12820.9
12794.5
12766.3
12736.4
12704.8
12671.7
12637
12600.8
12563.1
12523.7
12482.6
12439.7
12394.7
12347.4
12297.7
12245.6
12191.9
12139.5
12094.7
12058.1
12028.6
12004.9
11986.1
11971.5
11960.7
11952.9
11948.3
12978.8
12976.1
12971.1
12963.9
12955.1
12944.9
12933.8
12921.9
12909.4
12896.1
12881.3
12863.3
12842.3
12818.7
12792.8
12764.9
12735.2
12703.8
12670.7
12636
12599.7
12561.7
12521.9
12480.3
12436.5
12390.1
12340.8
12287.7
12230
12167
12101.2
12051.4
12014
11985.2
11962.5
11944.6
11930.8
11920.5
11913.2
11908.8
12950.9
12948.8
12944.7
12939
12931.8
12923.7
12914.8
12905.5
12896.1
12886.8
12876.6
12860.6
12840.5
12817.4
12791.8
12764.1
12734.5
12703.1
12670
12635.3
12598.9
12560.8
12520.8
12478.8
12434.5
12387.4
12336.7
12281.2
12218.4
12143.6
12045.6
11994.5
11960.2
11934.3
11913.9
11897.7
11885.2
11875.7
11868.8
11864.6
12923
12921.3
12918.1
12913.5
12907.8
12901.4
12894.5
12887.6
12881.3
12876.6
12873.5
12854.4
12832.4
12807.5
12780.3
12751
12719.8
12686.8
12652.1
12615.7
12577.5
12537.5
12495.6
12451.4
12404.8
12354.9
12300.9
12240.5
12168
12062.1
11941.5
11919.4
11896.7
11876.6
11859.7
11845.9
11834.9
11826.4
11820.1
11816.2
12895
12893.6
12891.1
12887.4
12882.9
12877.9
12872.6
12867.6
12863.3
12860.6
12854.4
12822.7
12791.7
12759.9
12726.7
12692.1
12656
12618.5
12579.4
12538.7
12496.4
12452.2
12405.9
12357
12305.2
12249.3
12188
12118.5
12035.4
11928.5
11855.1
11843.7
11829.1
11814.5
11801.2
11789.9
11780.5
11773.1
11767.5
11763.8
12866.5
12865.4
12863.4
12860.5
12857
12853.1
12849
12845.3
12842.3
12840.5
12832.4
12791.7
12753.2
12714.8
12675.9
12636.1
12595.4
12553.4
12510.2
12465.6
12419.4
12371.4
12321.2
12268.4
12212.4
12152.3
12086.7
12013.5
11929.7
11832.3
11776.8
11770
11760.3
11749.8
11739.6
11730.4
11722.7
11716.3
11711.3
11707.9
12837.4
12836.6
12834.9
12832.6
12829.9
12826.8
12823.7
12820.9
12818.7
12817.4
12807.5
12759.9
12714.8
12670.5
12626.2
12581.5
12536.2
12490
12442.9
12394.5
12344.6
12293.1
12239.5
12183.4
12124.3
12061.3
11993.5
11919.7