/*--------------------------------*- C++ -*----------------------------------*\
| =========                 |                                                 |
| \\      /  F ield         | OpenFOAM: The Open Source CFD Toolbox           |
|  \\    /   O peration     | Version:  2.1.0                                 |
|   \\  /    A nd           | Web:      www.OpenFOAM.org                      |
|    \\/     M anipulation  |                                                 |
\*---------------------------------------------------------------------------*/
FoamFile
{
    version     2.0;
    format      ascii;
    class       volScalarField;
    location    "28105";
    object      so;
}
// * * * * * * * * * * * * * * * * * * * * * * * * * * * * * * * * * * * * * //

dimensions      [0 0 0 0 0 0 0];

internalField   nonuniform List<scalar> 
8000
(
0.282383
0.295747
0.312182
0.32965
0.347044
0.363812
0.379711
0.394656
0.408649
0.421735
0.433952
0.445339
0.455943
0.465823
0.475041
0.483661
0.49174
0.499338
0.506518
0.513337
0.51985
0.526111
0.532169
0.538077
0.54389
0.549668
0.555482
0.561419
0.567588
0.574137
0.581273
0.589306
0.598728
0.61038
0.625794
0.647824
0.681008
0.728487
0.776902
0.797373
0.295746
0.307773
0.322642
0.33864
0.354777
0.370527
0.385623
0.399949
0.413475
0.426206
0.438149
0.449321
0.459755
0.469497
0.478603
0.487131
0.49513
0.50266
0.50978
0.516545
0.523006
0.529212
0.53521
0.541049
0.546779
0.552457
0.558151
0.563944
0.569948
0.576312
0.583252
0.591086
0.60032
0.611814
0.627136
0.6492
0.682581
0.730119
0.777779
0.797505
0.312181
0.322642
0.335704
0.34999
0.364649
0.379184
0.393313
0.40689
0.41985
0.432148
0.443752
0.454654
0.464871
0.474434
0.48339
0.491786
0.499667
0.507093
0.514116
0.520789
0.527156
0.533263
0.539149
0.544859
0.550435
0.55593
0.561407
0.566949
0.572669
0.578727
0.58535
0.592874
0.601824
0.61308
0.62824
0.650274
0.683783
0.731342
0.778425
0.797602
0.32965
0.338639
0.34999
0.362625
0.375826
0.389141
0.402289
0.415108
0.427488
0.439336
0.450588
0.461207
0.471189
0.480556
0.489341
0.49758
0.505323
0.512623
0.519529
0.526088
0.532338
0.538317
0.54406
0.549598
0.554968
0.560212
0.565387
0.570573
0.575888
0.581504
0.587672
0.594758
0.603311
0.614236
0.629165
0.651111
0.684702
0.732279
0.778921
0.797678
0.347043
0.354776
0.364649
0.375826
0.387716
0.399918
0.412175
0.424304
0.436154
0.447597
0.458532
0.468894
0.478659
0.487836
0.496445
0.504524
0.512125
0.519297
0.526085
0.532528
0.538661
0.544511
0.550101
0.555453
0.560589
0.565535
0.570336
0.575064
0.579838
0.584851
0.59039
0.596872
0.604888
0.615376
0.629997
0.651811
0.685464
0.733079
0.779361
0.797748
0.363811
0.370526
0.379184
0.389141
0.399918
0.411182
0.42269
0.434244
0.44567
0.45681
0.467523
0.477702
0.487301
0.496315
0.504766
0.512704
0.520181
0.527245
0.533937
0.540293
0.546336
0.552087
0.557555
0.562744
0.567655
0.57229
0.576667
0.580838
0.584915
0.589114
0.593783
0.599432
0.606724
0.616637
0.630869
0.652517
0.68624
0.733929
0.779852
0.797829
0.37971
0.385623
0.393313
0.402289
0.412175
0.42269
0.433609
0.444742
0.45591
0.46693
0.477597
0.487727
0.497245
0.506148
0.514489
0.52233
0.529729
0.536736
0.543392
0.549724
0.555753
0.561486
0.566918
0.572029
0.57679
0.581162
0.585114
0.588646
0.591839
0.594924
0.598345
0.602803
0.609087
0.618234
0.63197
0.653426
0.687255
0.735056
0.780518
0.797937
0.394656
0.399949
0.40689
0.415108
0.424304
0.434244
0.444742
0.455642
0.466796
0.478009
0.488973
0.499276
0.508837
0.517727
0.526041
0.533868
0.54128
0.548331
0.555065
0.561509
0.567677
0.573565
0.579151
0.584388
0.589202
0.593489
0.597126
0.599999
0.602084
0.603576
0.60506
0.607671
0.612443
0.620498
0.633574
0.654803
0.688788
0.736724
0.78148
0.798089
0.408649
0.413475
0.41985
0.427488
0.436154
0.44567
0.45591
0.466796
0.478282
0.49028
0.502354
0.513205
0.523018
0.532051
0.540488
0.548462
0.556068
0.563377
0.570438
0.577284
0.58393
0.590366
0.596552
0.602408
0.607799
0.612518
0.616276
0.618705
0.619456
0.618459
0.616414
0.615579
0.617677
0.623964
0.636058
0.656981
0.691163
0.739204
0.782835
0.798291
0.421734
0.426206
0.432148
0.439336
0.447597
0.45681
0.46693
0.478009
0.49028
0.504308
0.520811
0.532861
0.543282
0.552793
0.561731
0.570296
0.578629
0.586837
0.595003
0.603192
0.611446
0.619781
0.628174
0.636535
0.644655
0.652126
0.658236
0.661844
0.661328
0.654999
0.642901
0.63141
0.626755
0.629465
0.639883
0.660316
0.694695
0.742719
0.784617
0.798538
0.433951
0.438149
0.443752
0.450588
0.458531
0.467523
0.477597
0.488973
0.502354
0.520811
0.767966
0.775617
0.773363
0.772517
0.772606
0.77329
0.774378
0.775743
0.777293
0.77895
0.780648
0.782324
0.783912
0.785342
0.786525
0.787335
0.787553
0.786709
0.783491
0.77336
0.648721
0.639048
0.634084
0.635429
0.644774
0.664921
0.699565
0.747364
0.786765
0.798811
0.445338
0.449321
0.454654
0.461207
0.468894
0.477702
0.487727
0.499276
0.513205
0.532861
0.775617
0.798379
0.798918
0.798804
0.798759
0.798773
0.798827
0.798907
0.799002
0.799103
0.799204
0.799298
0.799382
0.799451
0.799502
0.79953
0.799523
0.799455
0.799249
0.798692
0.655149
0.64555
0.640696
0.641586
0.650506
0.670765
0.705799
0.753044
0.78912
0.799083
0.455943
0.459755
0.46487
0.471189
0.478659
0.487301
0.497245
0.508837
0.523019
0.543282
0.773362
0.798918
0.799947
0.799967
0.799965
0.799964
0.799966
0.799968
0.799971
0.799974
0.799977
0.79998
0.799983
0.799985
0.799986
0.799987
0.799987
0.799984
0.799978
0.799965
0.661978
0.651961
0.64719
0.648024
0.657015
0.677796
0.713311
0.75949
0.791474
0.79933
0.465823
0.469497
0.474434
0.480556
0.487836
0.496315
0.506148
0.517727
0.532051
0.552793
0.772517
0.798804
0.799967
0.799999
0.799999
0.799999
0.799999
0.799999
0.799999
0.799999
0.799999
0.8
0.8
0.8
0.8
0.8
0.8
0.8
0.8
0.799999
0.669192
0.658591
0.653875
0.654889
0.664331
0.685962
0.721917
0.766302
0.793631
0.799534
0.475041
0.478603
0.48339
0.489341
0.496445
0.504766
0.514489
0.526041
0.540488
0.561731
0.772606
0.798759
0.799965
0.799999
0.8
0.8
0.8
0.8
0.8
0.8
0.8
0.8
0.8
0.8
0.8
0.8
0.8
0.8
0.8
0.8
0.676814
0.6656
0.660952
0.662334
0.67253
0.695177
0.731339
0.773028
0.795454
0.79969
0.483661
0.487131
0.491786
0.49758
0.504524
0.512704
0.52233
0.533868
0.548462
0.570296
0.77329
0.798773
0.799964
0.799999
0.8
0.8
0.8
0.8
0.8
0.8
0.8
0.8
0.8
0.8
0.8
0.8
0.8
0.8
0.8
0.8
0.684904
0.673113
0.66859
0.670507
0.681669
0.705237
0.741194
0.779247
0.796889
0.799802
0.49174
0.49513
0.499667
0.505323
0.512125
0.520181
0.529729
0.54128
0.556068
0.578629
0.774378
0.798827
0.799966
0.799999
0.8
0.8
0.8
0.8
0.8
0.8
0.8
0.8
0.8
0.8
0.8
0.8
0.8
0.8
0.8
0.8
0.693517
0.681245
0.676932
0.679524
0.691721
0.715793
0.751025
0.784654
0.797949
0.799878
0.499338
0.50266
0.507093
0.512623
0.519297
0.527245
0.536736
0.548331
0.563377
0.586837
0.775743
0.798907
0.799968
0.799999
0.8
0.8
0.8
0.8
0.8
0.8
0.8
0.8
0.8
0.8
0.8
0.8
0.8
0.8
0.8
0.8
0.702668
0.690076
0.686072
0.689415
0.702484
0.726584
0.760363
0.789089
0.798691
0.799927
0.506518
0.50978
0.514116
0.519529
0.526085
0.533937
0.543392
0.555065
0.570438
0.595003
0.777293
0.799002
0.799971
0.799999
0.8
0.8
0.8
0.8
0.8
0.8
0.8
0.8
0.8
0.8
0.8
0.8
0.8
0.8
0.8
0.8
0.712276
0.699591
0.695994
0.700035
0.713499
0.737281
0.768823
0.792527
0.799185
0.799957
0.513337
0.516545
0.520789
0.526087
0.532528
0.540293
0.549724
0.561509
0.577284
0.603192
0.77895
0.799103
0.799974
0.799999
0.8
0.8
0.8
0.8
0.8
0.8
0.8
0.8
0.8
0.8
0.8
0.8
0.8
0.8
0.8
0.8
0.722132
0.709614
0.706482
0.710984
0.724366
0.747515
0.776176
0.795049
0.799502
0.799975
0.51985
0.523006
0.527156
0.532338
0.538661
0.546336
0.555753
0.567677
0.58393
0.611446
0.780648
0.799204
0.799977
0.799999
0.8
0.8
0.8
0.8
0.8
0.8
0.8
0.8
0.8
0.8
0.8
0.8
0.8
0.8
0.8
0.8
0.732093
0.719823
0.717095
0.721764
0.7349
0.756981
0.782347
0.796804
0.799699
0.799986
0.526111
0.529212
0.533263
0.538317
0.544511
0.552087
0.561486
0.573565
0.590366
0.619781
0.782324
0.799298
0.79998
0.8
0.8
0.8
0.8
0.8
0.8
0.8
0.8
0.8
0.8
0.8
0.8
0.8
0.8
0.8
0.8
0.8
0.741978
0.730071
0.727582
0.732228
0.744896
0.765495
0.787355
0.797971
0.799819
0.799992
0.532169
0.53521
0.539149
0.54406
0.550101
0.557555
0.566918
0.579151
0.596552
0.628174
0.783912
0.799382
0.799983
0.8
0.8
0.8
0.8
0.8
0.8
0.8
0.8
0.8
0.8
0.8
0.8
0.8
0.8
0.8
0.8
0.8
0.751526
0.740179
0.737801
0.742233
0.754194
0.772999
0.791258
0.798723
0.79989
0.799995
0.538077
0.541049
0.544859
0.549598
0.555453
0.562744
0.572029
0.584388
0.602408
0.636535
0.785342
0.799451
0.799985
0.8
0.8
0.8
0.8
0.8
0.8
0.8
0.8
0.8
0.8
0.8
0.8
0.8
0.8
0.8
0.8
0.8
0.760497
0.749944
0.747605
0.751678
0.762738
0.779504
0.794151
0.799197
0.799933
0.799997
0.54389
0.546779
0.550435
0.554968
0.560589
0.567655
0.57679
0.589202
0.607799
0.644655
0.786525
0.799502
0.799986
0.8
0.8
0.8
0.8
0.8
0.8
0.8
0.8
0.8
0.8
0.8
0.8
0.8
0.8
0.8
0.8
0.8
0.768775
0.759245
0.756937
0.760563
0.77055
0.785031
0.796184
0.799492
0.799958
0.799998
0.549668
0.552457
0.55593
0.560212
0.565535
0.57229
0.581162
0.593489
0.612518
0.652126
0.787335
0.79953
0.799987
0.8
0.8
0.8
0.8
0.8
0.8
0.8
0.8
0.8
0.8
0.8
0.8
0.8
0.8
0.8
0.8
0.8
0.776381
0.768092
0.765855
0.768959
0.777667
0.789578
0.797555
0.799676
0.799973
0.799999
0.555482
0.558151
0.561407
0.565387
0.570336
0.576667
0.585114
0.597126
0.616276
0.658236
0.787553
0.799523
0.799987
0.8
0.8
0.8
0.8
0.8
0.8
0.8
0.8
0.8
0.8
0.8
0.8
0.8
0.8
0.8
0.8
0.8
0.783366
0.77656
0.774455
0.776921
0.784059
0.79315
0.79846
0.799791
0.799982
0.799999
0.561419
0.563944
0.566949
0.570573
0.575064
0.580838
0.588646
0.599999
0.618705
0.661844
0.786709
0.799455
0.799984
0.8
0.8
0.8
0.8
0.8
0.8
0.8
0.8
0.8
0.8
0.8
0.8
0.8
0.8
0.8
0.8
0.8
0.789596
0.78455
0.782656
0.784328
0.789578
0.795792
0.799052
0.799865
0.799988
0.799999
0.567588
0.569948
0.572669
0.575888
0.579838
0.584915
0.59184
0.602084
0.619456
0.661328
0.783491
0.799249
0.799978
0.8
0.8
0.8
0.8
0.8
0.8
0.8
0.8
0.8
0.8
0.8
0.8
0.8
0.8
0.8
0.8
0.8
0.794593
0.791466
0.789915
0.790727
0.793961
0.797615
0.799438
0.799914
0.799992
0.8
0.574137
0.576312
0.578727
0.581504
0.584851
0.589114
0.594924
0.603576
0.618459
0.654999
0.773359
0.798692
0.799965
0.799999
0.8
0.8
0.8
0.8
0.8
0.8
0.8
0.8
0.8
0.8
0.8
0.8
0.8
0.8
0.8
0.8
0.797842
0.796343
0.795283
0.795439
0.796983
0.798769
0.799685
0.799947
0.799994
0.8
0.581273
0.583252
0.58535
0.587673
0.59039
0.593783
0.598345
0.60506
0.616414
0.642901
0.648721
0.655149
0.661978
0.669191
0.676814
0.684904
0.693517
0.702668
0.712276
0.722132
0.732093
0.741978
0.751525
0.760496
0.768775
0.776381
0.783366
0.789596
0.794592
0.797842
0.799084
0.798785
0.798259
0.798164
0.798708
0.79943
0.799837
0.799968
0.799996
0.8
0.589306
0.591086
0.592874
0.594758
0.596872
0.599432
0.602803
0.607672
0.615579
0.63141
0.639048
0.64555
0.651961
0.658591
0.6656
0.673112
0.681245
0.690076
0.69959
0.709614
0.719823
0.73007
0.740179
0.749944
0.759244
0.768091
0.77656
0.78455
0.791466
0.796343
0.798785
0.799431
0.799417
0.799367
0.799518
0.799763
0.79992
0.799981
0.799997
0.8
0.598728
0.60032
0.601825
0.603311
0.604889
0.606724
0.609087
0.612443
0.617677
0.626755
0.634084
0.640696
0.64719
0.653875
0.660952
0.66859
0.676931
0.686072
0.695994
0.706482
0.717094
0.727582
0.7378
0.747604
0.756936
0.765855
0.774455
0.782656
0.789915
0.795283
0.798259
0.799417
0.799728
0.799785
0.799833
0.799904
0.799961
0.799989
0.799998
0.8
0.61038
0.611814
0.61308
0.614236
0.615376
0.616637
0.618234
0.620499
0.623964
0.629465
0.635429
0.641586
0.648024
0.654889
0.662334
0.670507
0.679524
0.689415
0.700035
0.710984
0.721764
0.732228
0.742232
0.751678
0.760562
0.768959
0.776921
0.784328
0.790727
0.795439
0.798164
0.799367
0.799785
0.799901
0.799936
0.79996
0.799981
0.799993
0.799999
0.8
0.625794
0.627136
0.62824
0.629165
0.629997
0.630869
0.63197
0.633574
0.636058
0.639883
0.644774
0.650506
0.657015
0.664331
0.67253
0.681668
0.691721
0.702483
0.713499
0.724366
0.7349
0.744895
0.754194
0.762738
0.77055
0.777667
0.784059
0.789578
0.793961
0.796983
0.798708
0.799518
0.799833
0.799936
0.799969
0.799982
0.79999
0.799996
0.799999
0.8
0.647824
0.6492
0.650274
0.651112
0.651811
0.652517
0.653426
0.654803
0.656981
0.660316
0.664921
0.670766
0.677796
0.685962
0.695177
0.705236
0.715792
0.726584
0.73728
0.747515
0.756981
0.765495
0.772998
0.779504
0.785031
0.789578
0.793149
0.795792
0.797615
0.798769
0.79943
0.799763
0.799904
0.79996
0.799982
0.799991
0.799995
0.799998
0.799999
0.8
0.681008
0.682581
0.683783
0.684702
0.685464
0.68624
0.687255
0.688788
0.691163
0.694695
0.699565
0.705799
0.713311
0.721917
0.731339
0.741194
0.751025
0.760363
0.768822
0.776175
0.782347
0.787355
0.791258
0.794151
0.796184
0.797555
0.79846
0.799052
0.799438
0.799685
0.799837
0.79992
0.799961
0.799981
0.79999
0.799995
0.799997
0.799999
0.799999
0.8
0.728487
0.730119
0.731342
0.732279
0.733079
0.733929
0.735057
0.736724
0.739204
0.742719
0.747364
0.753044
0.75949
0.766302
0.773028
0.779247
0.784654
0.789089
0.792527
0.795049
0.796804
0.797971
0.798723
0.799197
0.799492
0.799676
0.799791
0.799865
0.799914
0.799947
0.799968
0.799981
0.799989
0.799993
0.799996
0.799998
0.799999
0.799999
0.8
0.8
0.776902
0.777779
0.778425
0.778922
0.779361
0.779852
0.780518
0.78148
0.782835
0.784617
0.786765
0.78912
0.791474
0.793631
0.795454
0.796889
0.797949
0.798691
0.799185
0.799502
0.799699
0.799819
0.79989
0.799933
0.799958
0.799973
0.799982
0.799988
0.799992
0.799994
0.799996
0.799997
0.799998
0.799999
0.799999
0.799999
0.799999
0.8
0.8
0.8
0.797373
0.797505
0.797602
0.797678
0.797748
0.797829
0.797937
0.798089
0.798291
0.798538
0.798811
0.799083
0.79933
0.799534
0.79969
0.799802
0.799878
0.799927
0.799957
0.799975
0.799986
0.799992
0.799995
0.799997
0.799998
0.799999
0.799999
0.799999
0.8
0.8
0.8
0.8
0.8
0.8
0.8
0.8
0.8
0.8
0.8
0.8
0.227945
0.24266
0.262756
0.284833
0.306709
0.327385
0.346519
0.364057
0.38007
0.394679
0.408027
0.420263
0.431509
0.441868
0.451438
0.460309
0.468574
0.476308
0.483576
0.490441
0.496962
0.503193
0.509185
0.51499
0.52066
0.526251
0.531824
0.537452
0.543222
0.549243
0.555655
0.562645
0.570465
0.579464
0.590166
0.60361
0.622961
0.657942
0.722036
0.785082
0.242657
0.257113
0.275785
0.29601
0.316157
0.335411
0.35343
0.370111
0.385472
0.399588
0.412568
0.424525
0.435553
0.445737
0.455162
0.463913
0.472078
0.479722
0.486907
0.493695
0.50014
0.506291
0.512198
0.517906
0.523464
0.528924
0.534345
0.539799
0.545373
0.55118
0.557367
0.564131
0.571732
0.58053
0.591054
0.604341
0.623574
0.658601
0.722873
0.785423
0.262754
0.275786
0.292253
0.310143
0.328201
0.345733
0.362389
0.378014
0.392568
0.406074
0.418598
0.430202
0.440945
0.450894
0.460121
0.468706
0.476724
0.484233
0.491293
0.497958
0.504277
0.510297
0.516058
0.521603
0.526973
0.532216
0.53739
0.542563
0.547829
0.553311
0.559169
0.565615
0.572926
0.581474
0.591791
0.604904
0.623998
0.659025
0.723429
0.785658
0.284833
0.29601
0.310142
0.3257
0.341682
0.357478
0.372737
0.387268
0.400983
0.413859
0.425904
0.437127
0.447556
0.45724
0.466241
0.474633
0.482472
0.489816
0.49672
0.503231
0.509393
0.515243
0.520817
0.526147
0.531269
0.536223
0.541059
0.54585
0.550694
0.555728
0.561136
0.567158
0.574095
0.582333
0.592409
0.605333
0.624278
0.659283
0.723807
0.785831
0.306709
0.316156
0.3282
0.341682
0.355792
0.369998
0.383962
0.397476
0.410421
0.422724
0.434325
0.445187
0.455309
0.464726
0.473498
0.481682
0.489331
0.496498
0.503232
0.509576
0.515566
0.52123
0.526594
0.53168
0.536512
0.541118
0.545541
0.549847
0.554142
0.558584
0.563394
0.568857
0.575314
0.583171
0.592965
0.605683
0.624478
0.659469
0.724139
0.785999
0.327384
0.33541
0.345733
0.357478
0.369998
0.382838
0.395689
0.408346
0.420666
0.432515
0.443768
0.454336
0.464195
0.473376
0.481933
0.489915
0.497378
0.504373
0.510945
0.517129
0.522953
0.528438
0.533597
0.538437
0.542965
0.54719
0.551137
0.554859
0.558463
0.562131
0.566143
0.570866
0.576701
0.58408
0.593539
0.606032
0.624683
0.659703
0.724591
0.78623
0.346519
0.353429
0.362388
0.372737
0.383962
0.395689
0.407654
0.41967
0.431565
0.443153
0.454234
0.464637
0.47432
0.483323
0.491694
0.4995
0.506802
0.51365
0.520087
0.526143
0.531837
0.537181
0.542172
0.546802
0.551052
0.554903
0.558344
0.561396
0.564146
0.5668
0.56972
0.573432
0.578436
0.5852
0.594247
0.606483
0.625001
0.660131
0.725358
0.786602
0.364057
0.370111
0.378014
0.387268
0.397476
0.408346
0.41967
0.431281
0.443014
0.454661
0.465909
0.476368
0.486009
0.494899
0.503137
0.510813
0.518
0.524752
0.531111
0.537103
0.542742
0.548027
0.552943
0.557458
0.561525
0.565079
0.568051
0.570389
0.572113
0.573409
0.574748
0.57699
0.580814
0.58674
0.59525
0.607169
0.625559
0.660921
0.72666
0.787189
0.38007
0.385472
0.392568
0.400983
0.410421
0.420666
0.431565
0.443014
0.454941
0.467236
0.479457
0.490341
0.500089
0.508958
0.517137
0.524759
0.531913
0.538666
0.545061
0.551123
0.556861
0.562266
0.567307
0.571929
0.576048
0.579541
0.582244
0.58396
0.584514
0.583914
0.582682
0.582445
0.584357
0.589011
0.596755
0.608243
0.6265
0.662255
0.728718
0.788049
0.394678
0.399588
0.406074
0.41386
0.422724
0.432515
0.443153
0.454661
0.467236
0.481408
0.497797
0.509574
0.519587
0.528561
0.536827
0.544571
0.551916
0.558942
0.565705
0.572237
0.578551
0.584636
0.590451
0.595913
0.600889
0.605169
0.608437
0.610211
0.60975
0.606123
0.599103
0.592455
0.590157
0.592488
0.599005
0.609855
0.627957
0.664306
0.731732
0.789199
0.408027
0.412568
0.418598
0.425904
0.434325
0.443768
0.454234
0.465909
0.479457
0.497797
0.759052
0.767103
0.763239
0.761111
0.760157
0.759951
0.760261
0.76094
0.761882
0.763
0.764218
0.76546
0.766643
0.767663
0.768382
0.768576
0.767839
0.765258
0.758259
0.738127
0.603895
0.597524
0.594874
0.596214
0.601796
0.611999
0.630005
0.667215
0.735841
0.790603
0.420263
0.424525
0.430202
0.437127
0.445187
0.454336
0.464637
0.476369
0.490341
0.509574
0.767103
0.797229
0.798056
0.797757
0.797561
0.797464
0.797441
0.797473
0.797544
0.797641
0.797751
0.797865
0.79797
0.798057
0.798109
0.798104
0.797998
0.797691
0.796909
0.794882
0.609022
0.601832
0.599091
0.599974
0.604918
0.614566
0.632646
0.671075
0.741087
0.79217
0.431509
0.435553
0.440945
0.447557
0.455309
0.464195
0.47432
0.486009
0.500089
0.519587
0.763239
0.798056
0.799887
0.799926
0.799916
0.799909
0.799906
0.799906
0.799908
0.799912
0.799916
0.799921
0.799926
0.79993
0.799932
0.799932
0.799927
0.799915
0.799885
0.799825
0.614071
0.605953
0.603123
0.603746
0.608233
0.617436
0.635846
0.675962
0.747401
0.793773
0.441868
0.445737
0.450894
0.45724
0.464726
0.473376
0.483323
0.494899
0.508958
0.528561
0.761111
0.797757
0.799926
0.799996
0.799998
0.799997
0.799997
0.799997
0.799997
0.799997
0.799998
0.799998
0.799998
0.799998
0.799998
0.799998
0.799998
0.799998
0.799997
0.799996
0.619067
0.610032
0.607093
0.607526
0.611641
0.620512
0.639596
0.681968
0.754578
0.795282
0.451438
0.455162
0.460121
0.466241
0.473498
0.481933
0.491694
0.503137
0.517138
0.536827
0.760157
0.797561
0.799916
0.799998
0.8
0.8
0.8
0.8
0.8
0.8
0.8
0.8
0.8
0.8
0.8
0.8
0.8
0.8
0.8
0.8
0.624011
0.614106
0.611038
0.611289
0.615065
0.623749
0.643923
0.689223
0.762271
0.796592
0.460309
0.463914
0.468707
0.474633
0.481682
0.489915
0.4995
0.510813
0.524759
0.544571
0.759951
0.797464
0.799909
0.799997
0.8
0.8
0.8
0.8
0.8
0.8
0.8
0.8
0.8
0.8
0.8
0.8
0.8
0.8
0.8
0.8
0.628892
0.618166
0.614944
0.614991
0.61844
0.627205
0.648901
0.697885
0.770004
0.797648
0.468574
0.472078
0.476725
0.482472
0.489331
0.497378
0.506802
0.518
0.531914
0.551916
0.760261
0.797441
0.799906
0.799997
0.8
0.8
0.8
0.8
0.8
0.8
0.8
0.8
0.8
0.8
0.8
0.8
0.8
0.8
0.8
0.8
0.633701
0.62219
0.618777
0.618581
0.621747
0.631048
0.654657
0.708094
0.777249
0.798443
0.476308
0.479722
0.484233
0.489817
0.496498
0.504373
0.51365
0.524752
0.538666
0.558942
0.76094
0.797473
0.799906
0.799997
0.8
0.8
0.8
0.8
0.8
0.8
0.8
0.8
0.8
0.8
0.8
0.8
0.8
0.8
0.8
0.8
0.638444
0.626152
0.622494
0.622027
0.625051
0.635352
0.661374
0.71985
0.783553
0.799004
0.483576
0.486908
0.491293
0.49672
0.503233
0.510945
0.520087
0.531111
0.545061
0.565705
0.761882
0.797544
0.799908
0.799997
0.8
0.8
0.8
0.8
0.8
0.8
0.8
0.8
0.8
0.8
0.8
0.8
0.8
0.8
0.8
0.8
0.643172
0.630059
0.626092
0.625368
0.628614
0.640221
0.669303
0.732833
0.788637
0.799381
0.490441
0.493695
0.497958
0.503231
0.509577
0.517129
0.526143
0.537103
0.551123
0.572237
0.763
0.797641
0.799912
0.799997
0.8
0.8
0.8
0.8
0.8
0.8
0.8
0.8
0.8
0.8
0.8
0.8
0.8
0.8
0.8
0.8
0.648017
0.634006
0.629664
0.628826
0.632679
0.645811
0.678751
0.746285
0.792448
0.799622
0.496962
0.50014
0.504277
0.509393
0.515566
0.522954
0.531837
0.542742
0.556861
0.578551
0.764218
0.797751
0.799916
0.799998
0.8
0.8
0.8
0.8
0.8
0.8
0.8
0.8
0.8
0.8
0.8
0.8
0.8
0.8
0.8
0.8
0.653068
0.638225
0.633512
0.632748
0.637338
0.652331
0.690017
0.759116
0.795122
0.799772
0.503193
0.506291
0.510297
0.515243
0.52123
0.528438
0.537181
0.548027
0.562266
0.584636
0.76546
0.797865
0.799921
0.799998
0.8
0.8
0.8
0.8
0.8
0.8
0.8
0.8
0.8
0.8
0.8
0.8
0.8
0.8
0.8
0.8
0.658415
0.642839
0.637833
0.637248
0.64274
0.660044
0.703226
0.770291
0.7969
0.799863
0.509185
0.512198
0.516058
0.520817
0.526594
0.533597
0.542172
0.552943
0.567307
0.590451
0.766643
0.79797
0.799926
0.799998
0.8
0.8
0.8
0.8
0.8
0.8
0.8
0.8
0.8
0.8
0.8
0.8
0.8
0.8
0.8
0.8
0.66424
0.64801
0.642778
0.642496
0.649109
0.669268
0.718093
0.779217
0.798038
0.799916
0.514991
0.517906
0.521603
0.526147
0.53168
0.538437
0.546802
0.557458
0.57193
0.595914
0.767663
0.798057
0.79993
0.799998
0.8
0.8
0.8
0.8
0.8
0.8
0.8
0.8
0.8
0.8
0.8
0.8
0.8
0.8
0.8
0.8
0.670858
0.654024
0.648612
0.648759
0.656747
0.680335
0.73373
0.785838
0.798749
0.799948
0.520661
0.523464
0.526973
0.531269
0.536512
0.542965
0.551053
0.561525
0.576048
0.600889
0.768382
0.798109
0.799932
0.799998
0.8
0.8
0.8
0.8
0.8
0.8
0.8
0.8
0.8
0.8
0.8
0.8
0.8
0.8
0.8
0.8
0.678795
0.661352
0.655765
0.656441
0.666059
0.693498
0.748812
0.790475
0.799187
0.799967
0.526251
0.528924
0.532217
0.536223
0.541119
0.54719
0.554903
0.565079
0.579541
0.605169
0.768576
0.798104
0.799932
0.799998
0.8
0.8
0.8
0.8
0.8
0.8
0.8
0.8
0.8
0.8
0.8
0.8
0.8
0.8
0.8
0.8
0.688911
0.670762
0.664916
0.666141
0.677566
0.708757
0.762118
0.793604
0.799458
0.799978
0.531824
0.534346
0.53739
0.54106
0.545541
0.551137
0.558344
0.568051
0.582244
0.608438
0.767839
0.797998
0.799927
0.799998
0.8
0.8
0.8
0.8
0.8
0.8
0.8
0.8
0.8
0.8
0.8
0.8
0.8
0.8
0.8
0.8
0.702517
0.683487
0.677134
0.678744
0.6919
0.725672
0.77302
0.795684
0.799628
0.799984
0.537452
0.539799
0.542563
0.54585
0.549847
0.554859
0.561396
0.570389
0.58396
0.610211
0.765258
0.797691
0.799915
0.799998
0.8
0.8
0.8
0.8
0.8
0.8
0.8
0.8
0.8
0.8
0.8
0.8
0.8
0.8
0.8
0.8
0.721216
0.701355
0.693998
0.695469
0.709687
0.743296
0.781504
0.797079
0.799738
0.799989
0.543222
0.545373
0.54783
0.550694
0.554142
0.558463
0.564147
0.572113
0.584514
0.60975
0.758259
0.796909
0.799885
0.799997
0.8
0.8
0.8
0.8
0.8
0.8
0.8
0.8
0.8
0.8
0.8
0.8
0.8
0.8
0.8
0.8
0.745571
0.726188
0.717221
0.7175
0.731011
0.760298
0.787894
0.79804
0.799812
0.799991
0.549243
0.55118
0.553311
0.555728
0.558584
0.562131
0.5668
0.57341
0.583915
0.606124
0.738127
0.794882
0.799825
0.799996
0.8
0.8
0.8
0.8
0.8
0.8
0.8
0.8
0.8
0.8
0.8
0.8
0.8
0.8
0.8
0.8
0.771827
0.756456
0.746227
0.744168
0.754181
0.775184
0.792586
0.798724
0.799866
0.799993
0.555655
0.557367
0.559169
0.561136
0.563394
0.566143
0.56972
0.574748
0.582683
0.599103
0.603895
0.609023
0.614071
0.619067
0.624011
0.628892
0.633701
0.638444
0.643172
0.648017
0.653068
0.658415
0.66424
0.670858
0.678795
0.68891
0.702516
0.721215
0.74557
0.771826
0.786244
0.781666
0.773709
0.770059
0.774945
0.786609
0.795874
0.799211
0.799904
0.799994
0.562646
0.564131
0.565615
0.567158
0.568857
0.570867
0.573433
0.57699
0.582445
0.592455
0.597524
0.601833
0.605953
0.610032
0.614106
0.618166
0.62219
0.626152
0.630059
0.634006
0.638225
0.642839
0.64801
0.654024
0.661352
0.670762
0.683486
0.701354
0.726187
0.756455
0.781666
0.790434
0.789606
0.787544
0.78902
0.793908
0.797935
0.799528
0.799931
0.799995
0.570465
0.571732
0.572926
0.574095
0.575314
0.576701
0.578436
0.580815
0.584357
0.590157
0.594874
0.599091
0.603123
0.607094
0.611038
0.614945
0.618777
0.622494
0.626092
0.629664
0.633512
0.637833
0.642778
0.648612
0.655765
0.664916
0.677133
0.693997
0.71722
0.746226
0.773709
0.789606
0.794732
0.795387
0.795969
0.797555
0.799005
0.799723
0.799951
0.799996
0.579464
0.58053
0.581474
0.582333
0.583171
0.58408
0.585201
0.586741
0.589012
0.592488
0.596214
0.599974
0.603747
0.607526
0.611289
0.614991
0.618581
0.622027
0.625368
0.628826
0.632748
0.637248
0.642496
0.648759
0.656441
0.666141
0.678743
0.695468
0.717499
0.744167
0.770059
0.787544
0.795387
0.797798
0.79848
0.799019
0.799527
0.79984
0.799965
0.799996
0.590166
0.591054
0.591791
0.592409
0.592965
0.593539
0.594248
0.595251
0.596755
0.599006
0.601797
0.604918
0.608233
0.611641
0.615065
0.618441
0.621747
0.625051
0.628614
0.632679
0.637338
0.64274
0.649109
0.656747
0.666059
0.677565
0.6919
0.709686
0.73101
0.75418
0.774944
0.78902
0.795969
0.79848
0.799258
0.799567
0.79977
0.799907
0.799975
0.799997
0.60361
0.604342
0.604904
0.605333
0.605684
0.606033
0.606484
0.607169
0.608243
0.609856
0.611999
0.614566
0.617436
0.620512
0.623749
0.627205
0.631048
0.635353
0.640221
0.645811
0.652331
0.660044
0.669268
0.680335
0.693498
0.708757
0.725672
0.743295
0.760297
0.775184
0.786609
0.793908
0.797555
0.799019
0.799567
0.799777
0.799881
0.799946
0.799983
0.799997
0.622961
0.623575
0.623998
0.624278
0.624479
0.624684
0.625001
0.625559
0.6265
0.627957
0.630005
0.632646
0.635847
0.639596
0.643923
0.648901
0.654657
0.661374
0.669303
0.678751
0.690016
0.703226
0.718092
0.73373
0.748811
0.762118
0.77302
0.781503
0.787894
0.792585
0.795873
0.797934
0.799005
0.799527
0.79977
0.799881
0.799936
0.799968
0.799988
0.799997
0.657942
0.658601
0.659025
0.659283
0.659469
0.659703
0.660131
0.660921
0.662255
0.664306
0.667215
0.671075
0.675962
0.681968
0.689222
0.697885
0.708094
0.719849
0.732833
0.746285
0.759116
0.770291
0.779217
0.785838
0.790475
0.793604
0.795684
0.797079
0.79804
0.798724
0.799211
0.799528
0.799723
0.79984
0.799907
0.799946
0.799968
0.799982
0.799992
0.799998
0.722036
0.722873
0.723429
0.723807
0.72414
0.724591
0.725358
0.72666
0.728718
0.731732
0.735841
0.741087
0.747401
0.754578
0.762271
0.770004
0.777249
0.783553
0.788636
0.792448
0.795122
0.7969
0.798038
0.798749
0.799187
0.799458
0.799628
0.799738
0.799812
0.799866
0.799904
0.799931
0.799951
0.799965
0.799975
0.799983
0.799988
0.799992
0.799996
0.799999
0.785082
0.785423
0.785658
0.785831
0.785999
0.78623
0.786602
0.787189
0.788049
0.789199
0.790603
0.79217
0.793773
0.795282
0.796592
0.797648
0.798443
0.799004
0.799381
0.799622
0.799772
0.799863
0.799916
0.799948
0.799967
0.799978
0.799984
0.799989
0.799991
0.799993
0.799994
0.799995
0.799996
0.799996
0.799997
0.799997
0.799997
0.799998
0.799999
0.799999
0.203556
0.211767
0.229674
0.253607
0.278651
0.30243
0.3242
0.343865
0.361556
0.37747
0.391814
0.404796
0.416606
0.427407
0.437326
0.446475
0.454952
0.462849
0.470243
0.4772
0.483784
0.490049
0.49605
0.501838
0.507463
0.512981
0.518449
0.523934
0.529513
0.535281
0.541355
0.547889
0.555087
0.563261
0.572961
0.585403
0.603632
0.635056
0.694606
0.77277
0.211763
0.224008
0.243439
0.266273
0.289466
0.311537
0.331938
0.350554
0.36745
0.382764
0.396655
0.409295
0.420846
0.431441
0.441191
0.450197
0.458551
0.46634
0.473633
0.480494
0.486981
0.493147
0.499041
0.50471
0.510203
0.515569
0.520866
0.526157
0.531524
0.537064
0.542903
0.5492
0.556171
0.564133
0.573641
0.585918
0.604029
0.635442
0.695145
0.773128
0.229668
0.24344
0.261961
0.282517
0.303267
0.323223
0.341938
0.359253
0.375159
0.389721
0.403044
0.415253
0.426468
0.436788
0.446306
0.455111
0.463291
0.470919
0.478059
0.484771
0.491107
0.497115
0.502838
0.508318
0.513599
0.518727
0.523757
0.528753
0.533801
0.53901
0.544516
0.550497
0.557179
0.564887
0.57418
0.586278
0.60426
0.63564
0.695449
0.773347
0.253607
0.266275
0.282517
0.300393
0.318614
0.336422
0.353407
0.369371
0.384239
0.398011
0.410736
0.422486
0.433329
0.443337
0.452586
0.461155
0.469124
0.476554
0.483506
0.490032
0.496178
0.501985
0.50749
0.512727
0.517733
0.522547
0.527222
0.531823
0.536443
0.541205
0.546269
0.551838
0.558157
0.565562
0.574611
0.586518
0.604365
0.635707
0.695608
0.773488
0.278653
0.289467
0.303267
0.318614
0.334521
0.350358
0.365739
0.380439
0.394335
0.407376
0.41955
0.430863
0.441339
0.451026
0.459992
0.468312
0.476049
0.483262
0.490006
0.496326
0.502261
0.507844
0.513102
0.518062
0.522747
0.527189
0.531431
0.535538
0.53961
0.543791
0.548278
0.553313
0.559177
0.566216
0.574986
0.586688
0.604404
0.635721
0.695737
0.77363
0.302431
0.311537
0.323223
0.336422
0.350358
0.3645
0.378494
0.392107
0.40519
0.417643
0.429377
0.440324
0.450472
0.459861
0.468556
0.476625
0.484129
0.491124
0.497658
0.503771
0.509495
0.514853
0.519863
0.524535
0.528881
0.532914
0.536662
0.540179
0.543569
0.547001
0.550727
0.555064
0.560344
0.566934
0.575379
0.586861
0.604456
0.635785
0.69598
0.773869
0.3242
0.331937
0.341937
0.353406
0.365739
0.378493
0.391362
0.404129
0.416638
0.428726
0.440208
0.450916
0.460815
0.469953
0.478406
0.486241
0.493526
0.500318
0.506661
0.512589
0.518128
0.52329
0.52808
0.532494
0.53652
0.540146
0.543368
0.546213
0.54877
0.551231
0.553925
0.557318
0.561827
0.567843
0.575895
0.587131
0.60462
0.636021
0.696508
0.774311
0.343865
0.350553
0.359252
0.36937
0.380438
0.392107
0.404129
0.416336
0.428574
0.440638
0.452209
0.462891
0.47266
0.481616
0.489863
0.497499
0.5046
0.511226
0.517421
0.523217
0.528631
0.533667
0.538316
0.542555
0.546345
0.549634
0.552365
0.5545
0.556066
0.557241
0.558456
0.560483
0.5639
0.569135
0.576677
0.58762
0.605018
0.636573
0.697509
0.775066
0.361556
0.367449
0.375158
0.384238
0.394335
0.40519
0.416638
0.428574
0.440924
0.453562
0.46602
0.477019
0.486804
0.495648
0.503747
0.511238
0.518218
0.524754
0.530893
0.536664
0.542081
0.54714
0.551819
0.556076
0.559841
0.563011
0.565444
0.566966
0.567423
0.56683
0.565668
0.565402
0.567047
0.571096
0.577915
0.588473
0.605784
0.63759
0.699177
0.776227
0.377469
0.382763
0.38972
0.39801
0.407375
0.417643
0.428726
0.440638
0.453562
0.467994
0.484495
0.496247
0.506165
0.514983
0.523035
0.53051
0.53753
0.544174
0.550495
0.556528
0.562287
0.567766