/*--------------------------------*- C++ -*----------------------------------*\
| =========                 |                                                 |
| \\      /  F ield         | OpenFOAM: The Open Source CFD Toolbox           |
|  \\    /   O peration     | Version:  2.1.0                                 |
|   \\  /    A nd           | Web:      www.OpenFOAM.org                      |
|    \\/     M anipulation  |                                                 |
\*---------------------------------------------------------------------------*/
FoamFile
{
    version     2.0;
    format      ascii;
    class       volScalarField;
    location    "28105";
    object      sw;
}
// * * * * * * * * * * * * * * * * * * * * * * * * * * * * * * * * * * * * * //

dimensions      [0 0 0 0 0 0 0];

internalField   nonuniform List<scalar> 
8000
(
0.717617
0.704253
0.687818
0.67035
0.652956
0.636188
0.620289
0.605344
0.591351
0.578265
0.566048
0.554661
0.544057
0.534177
0.524959
0.516339
0.50826
0.500662
0.493482
0.486663
0.48015
0.473889
0.467831
0.461923
0.45611
0.450332
0.444518
0.438581
0.432412
0.425863
0.418727
0.410694
0.401272
0.38962
0.374206
0.352176
0.318992
0.271513
0.223098
0.202627
0.704254
0.692227
0.677358
0.66136
0.645223
0.629473
0.614377
0.600051
0.586525
0.573794
0.561851
0.550679
0.540245
0.530503
0.521397
0.512869
0.50487
0.49734
0.49022
0.483455
0.476994
0.470788
0.46479
0.458951
0.453221
0.447543
0.441849
0.436056
0.430052
0.423688
0.416748
0.408914
0.39968
0.388186
0.372864
0.3508
0.317419
0.269881
0.222221
0.202495
0.687819
0.677358
0.664296
0.65001
0.635351
0.620816
0.606687
0.59311
0.58015
0.567852
0.556248
0.545346
0.535129
0.525566
0.51661
0.508214
0.500333
0.492907
0.485884
0.479211
0.472844
0.466737
0.460851
0.455141
0.449565
0.44407
0.438593
0.433051
0.427331
0.421273
0.41465
0.407126
0.398176
0.38692
0.37176
0.349726
0.316217
0.268658
0.221575
0.202398
0.67035
0.661361
0.65001
0.637375
0.624174
0.610859
0.597711
0.584892
0.572512
0.560664
0.549412
0.538793
0.528811
0.519444
0.510659
0.50242
0.494677
0.487377
0.480471
0.473912
0.467662
0.461683
0.45594
0.450402
0.445032
0.439788
0.434613
0.429427
0.424112
0.418496
0.412328
0.405242
0.396689
0.385764
0.370835
0.348889
0.315298
0.267721
0.221079
0.202322
0.652957
0.645224
0.635351
0.624174
0.612284
0.600082
0.587825
0.575696
0.563846
0.552403
0.541468
0.531106
0.521341
0.512164
0.503555
0.495476
0.487875
0.480703
0.473915
0.467472
0.461339
0.455489
0.449899
0.444547
0.439411
0.434465
0.429664
0.424936
0.420162
0.415149
0.40961
0.403128
0.395112
0.384624
0.370003
0.348189
0.314536
0.266921
0.220639
0.202252
0.636189
0.629474
0.620816
0.610859
0.600082
0.588818
0.57731
0.565756
0.55433
0.54319
0.532477
0.522298
0.512699
0.503685
0.495234
0.487296
0.479819
0.472755
0.466063
0.459707
0.453664
0.447913
0.442445
0.437256
0.432345
0.42771
0.423333
0.419162
0.415085
0.410886
0.406217
0.400568
0.393276
0.383363
0.369131
0.347483
0.31376
0.266071
0.220148
0.202171
0.62029
0.614377
0.606687
0.597711
0.587825
0.57731
0.566391
0.555258
0.54409
0.53307
0.522403
0.512273
0.502755
0.493852
0.485511
0.47767
0.470271
0.463264
0.456608
0.450276
0.444247
0.438514
0.433082
0.427971
0.42321
0.418838
0.414886
0.411354
0.408161
0.405076
0.401655
0.397197
0.390913
0.381766
0.36803
0.346574
0.312745
0.264944
0.219482
0.202063
0.605344
0.600051
0.59311
0.584892
0.575696
0.565756
0.555258
0.544358
0.533204
0.521991
0.511027
0.500724
0.491163
0.482273
0.473959
0.466132
0.45872
0.451669
0.444935
0.438491
0.432323
0.426435
0.420849
0.415612
0.410798
0.406511
0.402874
0.400001
0.397916
0.396424
0.39494
0.392329
0.387557
0.379502
0.366426
0.345197
0.311212
0.263276
0.21852
0.201911
0.591351
0.586525
0.58015
0.572512
0.563846
0.55433
0.54409
0.533204
0.521718
0.50972
0.497646
0.486795
0.476982
0.467949
0.459512
0.451538
0.443932
0.436623
0.429562
0.422716
0.41607
0.409634
0.403448
0.397592
0.392201
0.387482
0.383724
0.381295
0.380544
0.381541
0.383586
0.384421
0.382323
0.376036
0.363942
0.343019
0.308837
0.260796
0.217165
0.201709
0.578266
0.573794
0.567852
0.560664
0.552403
0.54319
0.53307
0.521991
0.50972
0.495692
0.479189
0.467139
0.456718
0.447207
0.438269
0.429704
0.421371
0.413163
0.404997
0.396808
0.388554
0.380219
0.371826
0.363465
0.355345
0.347874
0.341764
0.338156
0.338672
0.345001
0.357099
0.36859
0.373245
0.370535
0.360117
0.339684
0.305305
0.257281
0.215383
0.201462
0.566049
0.561851
0.556248
0.549412
0.541469
0.532477
0.522403
0.511027
0.497646
0.479189
0.232034
0.224383
0.226637
0.227483
0.227394
0.22671
0.225622
0.224257
0.222707
0.22105
0.219352
0.217676
0.216088
0.214658
0.213475
0.212665
0.212447
0.213291
0.216509
0.22664
0.351279
0.360952
0.365916
0.364571
0.355226
0.335079
0.300435
0.252636
0.213235
0.201189
0.554662
0.550679
0.545346
0.538793
0.531106
0.522298
0.512273
0.500724
0.486795
0.467139
0.224383
0.201621
0.201082
0.201196
0.201241
0.201227
0.201173
0.201093
0.200998
0.200897
0.200796
0.200702
0.200618
0.200549
0.200498
0.20047
0.200477
0.200545
0.200751
0.201308
0.344851
0.35445
0.359304
0.358414
0.349494
0.329235
0.294201
0.246956
0.21088
0.200917
0.544057
0.540245
0.53513
0.528811
0.521341
0.512699
0.502755
0.491163
0.476981
0.456718
0.226638
0.201082
0.200053
0.200033
0.200035
0.200036
0.200034
0.200032
0.200029
0.200026
0.200023
0.20002
0.200017
0.200015
0.200014
0.200013
0.200013
0.200016
0.200022
0.200035
0.338022
0.348039
0.35281
0.351976
0.342985
0.322204
0.286689
0.24051
0.208526
0.20067
0.534177
0.530503
0.525566
0.519444
0.512164
0.503685
0.493852
0.482273
0.467949
0.447207
0.227483
0.201196
0.200033
0.200001
0.200001
0.200001
0.200001
0.200001
0.200001
0.200001
0.200001
0.2
0.2
0.2
0.2
0.2
0.2
0.2
0.2
0.200001
0.330808
0.341409
0.346125
0.345111
0.335669
0.314038
0.278083
0.233698
0.206369
0.200466
0.524959
0.521397
0.51661
0.510659
0.503555
0.495234
0.485511
0.473959
0.459512
0.438269
0.227394
0.201241
0.200035
0.200001
0.2
0.2
0.2
0.2
0.2
0.2
0.2
0.2
0.2
0.2
0.2
0.2
0.2
0.2
0.2
0.2
0.323186
0.3344
0.339048
0.337666
0.32747
0.304823
0.268661
0.226972
0.204546
0.20031
0.516339
0.512869
0.508214
0.50242
0.495476
0.487296
0.47767
0.466132
0.451538
0.429704
0.22671
0.201227
0.200036
0.200001
0.2
0.2
0.2
0.2
0.2
0.2
0.2
0.2
0.2
0.2
0.2
0.2
0.2
0.2
0.2
0.2
0.315096
0.326887
0.33141
0.329493
0.318331
0.294763
0.258806
0.220753
0.203111
0.200198
0.50826
0.50487
0.500333
0.494677
0.487875
0.479819
0.470271
0.45872
0.443932
0.421371
0.225622
0.201173
0.200034
0.200001
0.2
0.2
0.2
0.2
0.2
0.2
0.2
0.2
0.2
0.2
0.2
0.2
0.2
0.2
0.2
0.2
0.306483
0.318755
0.323068
0.320476
0.308279
0.284207
0.248975
0.215346
0.202051
0.200122
0.500662
0.49734
0.492907
0.487377
0.480703
0.472755
0.463264
0.451669
0.436623
0.413163
0.224257
0.201093
0.200032
0.200001
0.2
0.2
0.2
0.2
0.2
0.2
0.2
0.2
0.2
0.2
0.2
0.2
0.2
0.2
0.2
0.2
0.297332
0.309924
0.313928
0.310585
0.297516
0.273416
0.239637
0.210911
0.201309
0.200073
0.493482
0.49022
0.485884
0.480471
0.473915
0.466063
0.456608
0.444935
0.429562
0.404997
0.222707
0.200998
0.200029
0.200001
0.2
0.2
0.2
0.2
0.2
0.2
0.2
0.2
0.2
0.2
0.2
0.2
0.2
0.2
0.2
0.2
0.287724
0.300409
0.304006
0.299965
0.286501
0.262719
0.231177
0.207473
0.200815
0.200043
0.486663
0.483455
0.479211
0.473913
0.467472
0.459707
0.450276
0.438491
0.422716
0.396808
0.22105
0.200897
0.200026
0.200001
0.2
0.2
0.2
0.2
0.2
0.2
0.2
0.2
0.2
0.2
0.2
0.2
0.2
0.2
0.2
0.2
0.277868
0.290386
0.293518
0.289016
0.275634
0.252485
0.223824
0.204951
0.200498
0.200025
0.48015
0.476994
0.472844
0.467662
0.461339
0.453664
0.444247
0.432323
0.41607
0.388554
0.219352
0.200796
0.200023
0.200001
0.2
0.2
0.2
0.2
0.2
0.2
0.2
0.2
0.2
0.2
0.2
0.2
0.2
0.2
0.2
0.2
0.267907
0.280177
0.282905
0.278236
0.2651
0.243019
0.217653
0.203196
0.200301
0.200014
0.473889
0.470788
0.466737
0.461683
0.455489
0.447913
0.438514
0.426435
0.409634
0.380219
0.217676
0.200702
0.20002
0.2
0.2
0.2
0.2
0.2
0.2
0.2
0.2
0.2
0.2
0.2
0.2
0.2
0.2
0.2
0.2
0.2
0.258022
0.269929
0.272418
0.267772
0.255104
0.234505
0.212645
0.202029
0.200181
0.200008
0.467831
0.46479
0.460851
0.45594
0.449899
0.442445
0.433082
0.420849
0.403448
0.371826
0.216088
0.200618
0.200017
0.2
0.2
0.2
0.2
0.2
0.2
0.2
0.2
0.2
0.2
0.2
0.2
0.2
0.2
0.2
0.2
0.2
0.248474
0.259821
0.262199
0.257767
0.245806
0.227001
0.208742
0.201277
0.20011
0.200005
0.461923
0.458951
0.455141
0.450402
0.444547
0.437256
0.427971
0.415612
0.397592
0.363465
0.214658
0.200549
0.200015
0.2
0.2
0.2
0.2
0.2
0.2
0.2
0.2
0.2
0.2
0.2
0.2
0.2
0.2
0.2
0.2
0.2
0.239503
0.250056
0.252395
0.248322
0.237262
0.220496
0.205849
0.200803
0.200067
0.200003
0.45611
0.453221
0.449565
0.445032
0.439411
0.432345
0.42321
0.410798
0.392201
0.355345
0.213475
0.200498
0.200014
0.2
0.2
0.2
0.2
0.2
0.2
0.2
0.2
0.2
0.2
0.2
0.2
0.2
0.2
0.2
0.2
0.2
0.231225
0.240755
0.243063
0.239437
0.22945
0.214969
0.203816
0.200508
0.200042
0.200002
0.450332
0.447543
0.44407
0.439788
0.434465
0.42771
0.418838
0.406511
0.387482
0.347874
0.212665
0.20047
0.200013
0.2
0.2
0.2
0.2
0.2
0.2
0.2
0.2
0.2
0.2
0.2
0.2
0.2
0.2
0.2
0.2
0.2
0.223619
0.231908
0.234145
0.231041
0.222333
0.210422
0.202445
0.200324
0.200027
0.200001
0.444518
0.441849
0.438593
0.434613
0.429664
0.423333
0.414886
0.402874
0.383724
0.341764
0.212447
0.200477
0.200013
0.2
0.2
0.2
0.2
0.2
0.2
0.2
0.2
0.2
0.2
0.2
0.2
0.2
0.2
0.2
0.2
0.2
0.216634
0.22344
0.225545
0.223079
0.215941
0.20685
0.20154
0.200209
0.200018
0.200001
0.438581
0.436056
0.433051
0.429427
0.424936
0.419162
0.411354
0.400001
0.381295
0.338156
0.213291
0.200545
0.200016
0.2
0.2
0.2
0.2
0.2
0.2
0.2
0.2
0.2
0.2
0.2
0.2
0.2
0.2
0.2
0.2
0.2
0.210404
0.21545
0.217344
0.215672
0.210422
0.204208
0.200948
0.200135
0.200012
0.200001
0.432412
0.430052
0.427331
0.424112
0.420162
0.415085
0.40816
0.397916
0.380544
0.338672
0.216509
0.200751
0.200022
0.2
0.2
0.2
0.2
0.2
0.2
0.2
0.2
0.2
0.2
0.2
0.2
0.2
0.2
0.2
0.2
0.2
0.205407
0.208534
0.210085
0.209273
0.206039
0.202385
0.200562
0.200086
0.200008
0.2
0.425863
0.423688
0.421273
0.418496
0.415149
0.410886
0.405076
0.396424
0.381541
0.345001
0.226641
0.201308
0.200035
0.200001
0.2
0.2
0.2
0.2
0.2
0.2
0.2
0.2
0.2
0.2
0.2
0.2
0.2
0.2
0.2
0.2
0.202158
0.203657
0.204717
0.204561
0.203017
0.201231
0.200315
0.200053
0.200006
0.2
0.418727
0.416748
0.41465
0.412327
0.40961
0.406217
0.401655
0.39494
0.383586
0.357099
0.351279
0.344851
0.338022
0.330809
0.323186
0.315096
0.306483
0.297332
0.287724
0.277868
0.267907
0.258022
0.248475
0.239504
0.231225
0.223619
0.216634
0.210404
0.205408
0.202158
0.200916
0.201215
0.201741
0.201836
0.201292
0.20057
0.200163
0.200032
0.200004
0.2
0.410694
0.408914
0.407126
0.405242
0.403128
0.400568
0.397197
0.392328
0.384421
0.36859
0.360952
0.35445
0.348039
0.341409
0.3344
0.326888
0.318755
0.309924
0.30041
0.290386
0.280177
0.26993
0.259821
0.250056
0.240756
0.231909
0.22344
0.21545
0.208534
0.203657
0.201215
0.200569
0.200583
0.200633
0.200482
0.200237
0.20008
0.200019
0.200003
0.2
0.401272
0.39968
0.398175
0.396689
0.395111
0.393276
0.390913
0.387557
0.382323
0.373245
0.365916
0.359304
0.35281
0.346125
0.339048
0.33141
0.323069
0.313928
0.304006
0.293518
0.282906
0.272418
0.2622
0.252396
0.243064
0.234145
0.225545
0.217344
0.210085
0.204717
0.201741
0.200583
0.200272
0.200215
0.200167
0.200096
0.200039
0.200011
0.200002
0.2
0.38962
0.388186
0.38692
0.385764
0.384624
0.383363
0.381766
0.379501
0.376036
0.370535
0.364571
0.358414
0.351976
0.345111
0.337666
0.329493
0.320476
0.310585
0.299965
0.289016
0.278236
0.267772
0.257768
0.248322
0.239438
0.231041
0.223079
0.215672
0.209273
0.204561
0.201836
0.200633
0.200215
0.200099
0.200064
0.20004
0.200019
0.200007
0.200001
0.2
0.374206
0.372864
0.37176
0.370835
0.370003
0.369131
0.36803
0.366426
0.363942
0.360117
0.355226
0.349494
0.342985
0.335669
0.32747
0.318332
0.308279
0.297517
0.286501
0.275634
0.2651
0.255105
0.245806
0.237262
0.22945
0.222333
0.215941
0.210422
0.206039
0.203017
0.201292
0.200482
0.200167
0.200064
0.200031
0.200018
0.20001
0.200004
0.200001
0.2
0.352176
0.3508
0.349726
0.348888
0.348189
0.347483
0.346574
0.345197
0.343019
0.339684
0.335079
0.329234
0.322204
0.314038
0.304823
0.294764
0.284208
0.273416
0.26272
0.252485
0.243019
0.234505
0.227002
0.220496
0.214969
0.210422
0.206851
0.204208
0.202385
0.201231
0.20057
0.200237
0.200096
0.20004
0.200018
0.200009
0.200005
0.200002
0.200001
0.2
0.318992
0.317419
0.316217
0.315298
0.314536
0.31376
0.312745
0.311212
0.308837
0.305305
0.300435
0.294201
0.286689
0.278083
0.268661
0.258806
0.248975
0.239637
0.231178
0.223825
0.217653
0.212645
0.208742
0.205849
0.203816
0.202445
0.20154
0.200948
0.200562
0.200315
0.200163
0.20008
0.200039
0.200019
0.20001
0.200005
0.200003
0.200001
0.200001
0.2
0.271513
0.269881
0.268658
0.267721
0.266921
0.266071
0.264943
0.263276
0.260796
0.257281
0.252636
0.246956
0.24051
0.233698
0.226972
0.220753
0.215346
0.210911
0.207473
0.204951
0.203196
0.202029
0.201277
0.200803
0.200508
0.200324
0.200209
0.200135
0.200086
0.200053
0.200032
0.200019
0.200011
0.200007
0.200004
0.200002
0.200001
0.200001
0.2
0.2
0.223098
0.222221
0.221575
0.221078
0.220639
0.220148
0.219482
0.21852
0.217165
0.215383
0.213235
0.21088
0.208526
0.206369
0.204546
0.203111
0.202051
0.201309
0.200815
0.200498
0.200301
0.200181
0.20011
0.200067
0.200042
0.200027
0.200018
0.200012
0.200008
0.200006
0.200004
0.200003
0.200002
0.200001
0.200001
0.200001
0.200001
0.2
0.2
0.2
0.202627
0.202495
0.202398
0.202322
0.202252
0.202171
0.202063
0.201911
0.201709
0.201462
0.201189
0.200917
0.20067
0.200466
0.20031
0.200198
0.200122
0.200073
0.200043
0.200025
0.200014
0.200008
0.200005
0.200003
0.200002
0.200001
0.200001
0.200001
0.2
0.2
0.2
0.2
0.2
0.2
0.2
0.2
0.2
0.2
0.2
0.2
0.772055
0.75734
0.737244
0.715167
0.693291
0.672615
0.653481
0.635943
0.61993
0.605321
0.591973
0.579737
0.568491
0.558132
0.548562
0.539691
0.531426
0.523692
0.516424
0.509559
0.503038
0.496807
0.490815
0.48501
0.47934
0.473749
0.468176
0.462548
0.456778
0.450757
0.444345
0.437355
0.429535
0.420536
0.409834
0.39639
0.377039
0.342058
0.277964
0.214918
0.757343
0.742887
0.724215
0.70399
0.683843
0.664589
0.64657
0.629889
0.614528
0.600412
0.587432
0.575475
0.564447
0.554263
0.544838
0.536087
0.527922
0.520278
0.513093
0.506305
0.49986
0.493709
0.487802
0.482094
0.476536
0.471076
0.465655
0.460201
0.454627
0.44882
0.442633
0.435869
0.428268
0.41947
0.408946
0.395659
0.376426
0.341399
0.277127
0.214577
0.737246
0.724214
0.707747
0.689857
0.671799
0.654267
0.637611
0.621986
0.607432
0.593926
0.581402
0.569798
0.559055
0.549106
0.539879
0.531294
0.523276
0.515767
0.508707
0.502042
0.495723
0.489703
0.483942
0.478397
0.473027
0.467784
0.46261
0.457437
0.452171
0.446689
0.440831
0.434385
0.427074
0.418526
0.408209
0.395096
0.376002
0.340975
0.276571
0.214342
0.715167
0.70399
0.689858
0.6743
0.658318
0.642522
0.627263
0.612732
0.599017
0.586141
0.574096
0.562873
0.552444
0.54276
0.533759
0.525367
0.517528
0.510184
0.50328
0.496769
0.490607
0.484757
0.479183
0.473853
0.468731
0.463777
0.458941
0.45415
0.449306
0.444272
0.438864
0.432842
0.425905
0.417667
0.407591
0.394667
0.375722
0.340717
0.276193
0.214169
0.693291
0.683844
0.6718
0.658318
0.644208
0.630002
0.616038
0.602524
0.589579
0.577276
0.565675
0.554813
0.544691
0.535274
0.526502
0.518318
0.510669
0.503502
0.496768
0.490424
0.484434
0.47877
0.473406
0.46832
0.463488
0.458882
0.454459
0.450153
0.445858
0.441416
0.436606
0.431143
0.424686
0.416829
0.407035
0.394317
0.375522
0.340531
0.275861
0.214001
0.672616
0.66459
0.654267
0.642522
0.630002
0.617162
0.604311
0.591654
0.579334
0.567485
0.556232
0.545664
0.535805
0.526624
0.518067
0.510085
0.502622
0.495627
0.489055
0.482871
0.477047
0.471562
0.466403
0.461563
0.457035
0.45281
0.448863
0.445141
0.441537
0.437869
0.433857
0.429134
0.423299
0.41592
0.406461
0.393968
0.375317
0.340297
0.275409
0.21377
0.653481
0.646571
0.637612
0.627263
0.616038
0.604311
0.592346
0.58033
0.568435
0.556847
0.545766
0.535363
0.52568
0.516677
0.508306
0.5005
0.493198
0.48635
0.479913
0.473857
0.468163
0.462819
0.457828
0.453198
0.448948
0.445097
0.441656
0.438604
0.435854
0.4332
0.43028
0.426568
0.421564
0.4148
0.405753
0.393517
0.374999
0.339869
0.274642
0.213398
0.635943
0.629889
0.621986
0.612732
0.602524
0.591654
0.58033
0.568719
0.556986
0.545339
0.534091
0.523632
0.513991
0.505101
0.496863
0.489187
0.482
0.475248
0.468889
0.462897
0.457258
0.451973
0.447057
0.442542
0.438475
0.434921
0.431949
0.429611
0.427887
0.426591
0.425252
0.42301
0.419186
0.41326
0.40475
0.392831
0.374441
0.339079
0.27334
0.212811
0.61993
0.614528
0.607432
0.599017
0.589579
0.579334
0.568435
0.556986
0.545059
0.532764
0.520543
0.509659
0.499911
0.491042
0.482863
0.475241
0.468087
0.461334
0.454939
0.448877
0.443139
0.437734
0.432693
0.428071
0.423952
0.420459
0.417756
0.41604
0.415486
0.416086
0.417318
0.417555
0.415643
0.410989
0.403245
0.391757
0.3735
0.337745
0.271282
0.211951
0.605322
0.600412
0.593926
0.58614
0.577276
0.567485
0.556847
0.545339
0.532764
0.518592
0.502203
0.490426
0.480413
0.471439
0.463173
0.455429
0.448084
0.441058
0.434295
0.427763
0.421449
0.415364
0.409549
0.404087
0.399111
0.394831
0.391563
0.389789
0.39025
0.393877
0.400897
0.407545
0.409843
0.407512
0.400995
0.390145
0.372043
0.335694
0.268268
0.210801
0.591973
0.587432
0.581402
0.574096
0.565675
0.556232
0.545766
0.534091
0.520543
0.502203
0.240948
0.232897
0.236761
0.238889
0.239843
0.240049
0.239739
0.23906
0.238118
0.237
0.235782
0.23454
0.233357
0.232337
0.231618
0.231424
0.232161
0.234742
0.241741
0.261873
0.396105
0.402476
0.405126
0.403786
0.398204
0.388001
0.369995
0.332785
0.264159
0.209397
0.579737
0.575475
0.569798
0.562873
0.554813
0.545664
0.535363
0.523631
0.509659
0.490426
0.232897
0.202771
0.201944
0.202243
0.202439
0.202536
0.202559
0.202527
0.202456
0.202359
0.202249
0.202135
0.20203
0.201943
0.201891
0.201896
0.202002
0.202309
0.203091
0.205118
0.390978
0.398168
0.400909
0.400026
0.395082
0.385434
0.367354
0.328925
0.258913
0.20783
0.568491
0.564447
0.559055
0.552443
0.544691
0.535805
0.52568
0.513991
0.499911
0.480413
0.236761
0.201944
0.200113
0.200074
0.200084
0.200091
0.200094
0.200094
0.200092
0.200088
0.200084
0.200079
0.200074
0.20007
0.200068
0.200068
0.200073
0.200085
0.200115
0.200175
0.385929
0.394047
0.396877
0.396254
0.391767
0.382564
0.364154
0.324038
0.252599
0.206227
0.558132
0.554263
0.549106
0.54276
0.535274
0.526624
0.516677
0.505101
0.491042
0.471439
0.238889
0.202243
0.200074
0.200004
0.200002
0.200003
0.200003
0.200003
0.200003
0.200003
0.200002
0.200002
0.200002
0.200002
0.200002
0.200002
0.200002
0.200002
0.200003
0.200004
0.380933
0.389968
0.392907
0.392474
0.388359
0.379488
0.360404
0.318032
0.245422
0.204718
0.548562
0.544838
0.539879
0.533759
0.526502
0.518067
0.508306
0.496863
0.482862
0.463173
0.239843
0.202439
0.200084
0.200002
0.2
0.2
0.2
0.2
0.2
0.2
0.2
0.2
0.2
0.2
0.2
0.2
0.2
0.2
0.2
0.2
0.375989
0.385894
0.388962
0.388711
0.384935
0.376251
0.356077
0.310777
0.237729
0.203408
0.539691
0.536086
0.531293
0.525367
0.518318
0.510085
0.5005
0.489187
0.475241
0.455429
0.240049
0.202536
0.200091
0.200003
0.2
0.2
0.2
0.2
0.2
0.2
0.2
0.2
0.2
0.2
0.2
0.2
0.2
0.2
0.2
0.2
0.371108
0.381834
0.385056
0.385009
0.38156
0.372795
0.351099
0.302115
0.229996
0.202352
0.531426
0.527922
0.523275
0.517528
0.510669
0.502622
0.493198
0.482
0.468086
0.448084
0.239739
0.202559
0.200094
0.200003
0.2
0.2
0.2
0.2
0.2
0.2
0.2
0.2
0.2
0.2
0.2
0.2
0.2
0.2
0.2
0.2
0.366299
0.37781
0.381223
0.381419
0.378253
0.368952
0.345343
0.291906
0.222751
0.201557
0.523692
0.520278
0.515767
0.510183
0.503502
0.495627
0.48635
0.475248
0.461334
0.441058
0.23906
0.202527
0.200094
0.200003
0.2
0.2
0.2
0.2
0.2
0.2
0.2
0.2
0.2
0.2
0.2
0.2
0.2
0.2
0.2
0.2
0.361556
0.373848
0.377506
0.377973
0.374949
0.364648
0.338626
0.28015
0.216447
0.200996
0.516424
0.513092
0.508707
0.50328
0.496767
0.489055
0.479913
0.468889
0.454939
0.434295
0.238118
0.202456
0.200092
0.200003
0.2
0.2
0.2
0.2
0.2
0.2
0.2
0.2
0.2
0.2
0.2
0.2
0.2
0.2
0.2
0.2
0.356828
0.369941
0.373908
0.374632
0.371386
0.359779
0.330697
0.267167
0.211363
0.200619
0.509559
0.506305
0.502042
0.496769
0.490423
0.482871
0.473857
0.462897
0.448877
0.427763
0.237
0.202359
0.200088
0.200003
0.2
0.2
0.2
0.2
0.2
0.2
0.2
0.2
0.2
0.2
0.2
0.2
0.2
0.2
0.2
0.2
0.351983
0.365994
0.370336
0.371174
0.367321
0.354189
0.321249
0.253715
0.207552
0.200378
0.503038
0.49986
0.495723
0.490607
0.484434
0.477046
0.468163
0.457258
0.443139
0.421449
0.235782
0.202249
0.200084
0.200002
0.2
0.2
0.2
0.2
0.2
0.2
0.2
0.2
0.2
0.2
0.2
0.2
0.2
0.2
0.2
0.2
0.346932
0.361775
0.366488
0.367252
0.362662
0.347669
0.309983
0.240884
0.204878
0.200228
0.496807
0.493709
0.489703
0.484757
0.47877
0.471562
0.462819
0.451973
0.437734
0.415364
0.23454
0.202135
0.200079
0.200002
0.2
0.2
0.2
0.2
0.2
0.2
0.2
0.2
0.2
0.2
0.2
0.2
0.2
0.2
0.2
0.2
0.341585
0.357161
0.362167
0.362752
0.35726
0.339956
0.296774
0.229709
0.2031
0.200137
0.490815
0.487802
0.483942
0.479183
0.473406
0.466403
0.457828
0.447057
0.432693
0.409549
0.233357
0.20203
0.200074
0.200002
0.2
0.2
0.2
0.2
0.2
0.2
0.2
0.2
0.2
0.2
0.2
0.2
0.2
0.2
0.2
0.2
0.33576
0.35199
0.357222
0.357504
0.350891
0.330732
0.281907
0.220783
0.201962
0.200084
0.485009
0.482094
0.478397
0.473853
0.46832
0.461563
0.453198
0.442542
0.42807
0.404086
0.232337
0.201943
0.20007
0.200002
0.2
0.2
0.2
0.2
0.2
0.2
0.2
0.2
0.2
0.2
0.2
0.2
0.2
0.2
0.2
0.2
0.329142
0.345976
0.351388
0.351241
0.343253
0.319665
0.26627
0.214162
0.201251
0.200052
0.479339
0.476536
0.473027
0.468731
0.463488
0.457035
0.448947
0.438475
0.423952
0.399111
0.231618
0.201891
0.200068
0.200002
0.2
0.2
0.2
0.2
0.2
0.2
0.2
0.2
0.2
0.2
0.2
0.2
0.2
0.2
0.2
0.2
0.321205
0.338648
0.344235
0.343559
0.333941
0.306502
0.251188
0.209525
0.200813
0.200033
0.473749
0.471076
0.467783
0.463777
0.458881
0.45281
0.445097
0.434921
0.420459
0.394831
0.231424
0.201896
0.200068
0.200002
0.2
0.2
0.2
0.2
0.2
0.2
0.2
0.2
0.2
0.2
0.2
0.2
0.2
0.2
0.2
0.2
0.311089
0.329238
0.335084
0.333859
0.322434
0.291243
0.237882
0.206396
0.200542
0.200022
0.468176
0.465654
0.46261
0.45894
0.454459
0.448863
0.441656
0.431949
0.417756
0.391562
0.232161
0.202002
0.200073
0.200002
0.2
0.2
0.2
0.2
0.2
0.2
0.2
0.2
0.2
0.2
0.2
0.2
0.2
0.2
0.2
0.2
0.297483
0.316513
0.322866
0.321256
0.3081
0.274328
0.22698
0.204316
0.200372
0.200016
0.462548
0.460201
0.457437
0.45415
0.450153
0.445141
0.438604
0.429611
0.41604
0.389789
0.234742
0.202309
0.200085
0.200002
0.2
0.2
0.2
0.2
0.2
0.2
0.2
0.2
0.2
0.2
0.2
0.2
0.2
0.2
0.2
0.2
0.278784
0.298645
0.306002
0.304531
0.290313
0.256704
0.218496
0.202921
0.200262
0.200011
0.456778
0.454627
0.45217
0.449306
0.445858
0.441537
0.435853
0.427887
0.415486
0.39025
0.241741
0.203091
0.200115
0.200003
0.2
0.2
0.2
0.2
0.2
0.2
0.2
0.2
0.2
0.2
0.2
0.2
0.2
0.2
0.2
0.2
0.254429
0.273812
0.282779
0.2825
0.268989
0.239702
0.212106
0.20196
0.200188
0.200009
0.450757
0.44882
0.446689
0.444272
0.441416
0.437869
0.4332
0.42659
0.416085
0.393876
0.261873
0.205118
0.200175
0.200004
0.2
0.2
0.2
0.2
0.2
0.2
0.2
0.2
0.2
0.2
0.2
0.2
0.2
0.2
0.2
0.2
0.228173
0.243544
0.253773
0.255832
0.245819
0.224816
0.207414
0.201276
0.200134
0.200007
0.444345
0.442633
0.440831
0.438864
0.436606
0.433857
0.43028
0.425252
0.417317
0.400897
0.396105
0.390977
0.385929
0.380933
0.375989
0.371108
0.366299
0.361556
0.356828
0.351983
0.346932
0.341585
0.33576
0.329142
0.321205
0.31109
0.297484
0.278785
0.25443
0.228174
0.213756
0.218334
0.226291
0.229941
0.225055
0.213391
0.204126
0.200789
0.200096
0.200006
0.437354
0.435869
0.434385
0.432842
0.431143
0.429133
0.426567
0.42301
0.417555
0.407545
0.402476
0.398167
0.394047
0.389968
0.385894
0.381834
0.37781
0.373848
0.369941
0.365994
0.361775
0.357161
0.35199
0.345976
0.338648
0.329238
0.316514
0.298646
0.273813
0.243545
0.218334
0.209566
0.210394
0.212456
0.21098
0.206092
0.202065
0.200472
0.200069
0.200005
0.429535
0.428268
0.427074
0.425905
0.424686
0.423299
0.421564
0.419185
0.415643
0.409843
0.405126
0.400909
0.396877
0.392906
0.388962
0.385055
0.381223
0.377506
0.373908
0.370336
0.366488
0.362167
0.357222
0.351388
0.344235
0.335084
0.322867
0.306003
0.28278
0.253774
0.226291
0.210394
0.205268
0.204613
0.204031
0.202445
0.200995
0.200277
0.200049
0.200004
0.420536
0.41947
0.418526
0.417667
0.416829
0.41592
0.414799
0.413259
0.410988
0.407512
0.403786
0.400026
0.396253
0.392474
0.388711
0.385009
0.381419
0.377973
0.374632
0.371174
0.367252
0.362752
0.357504
0.351241
0.343559
0.333859
0.321257
0.304532
0.282501
0.255833
0.229941
0.212456
0.204613
0.202202
0.20152
0.200981
0.200473
0.20016
0.200035
0.200004
0.409834
0.408946
0.408209
0.407591
0.407035
0.406461
0.405752
0.404749
0.403245
0.400994
0.398203
0.395082
0.391767
0.388359
0.384935
0.381559
0.378253
0.374949
0.371386
0.367321
0.362662
0.35726
0.350891
0.343253
0.333941
0.322435
0.3081
0.290314
0.26899
0.24582
0.225056
0.21098
0.204031
0.20152
0.200742
0.200433
0.20023
0.200093
0.200025
0.200003
0.39639
0.395658
0.395096
0.394667
0.394316
0.393967
0.393516
0.392831
0.391757
0.390144
0.388001
0.385434
0.382564
0.379488
0.376251
0.372795
0.368952
0.364647
0.359779
0.354189
0.347669
0.339956
0.330732
0.319665
0.306502
0.291243
0.274328
0.256705
0.239703
0.224816
0.213391
0.206092
0.202445
0.200981
0.200433
0.200223
0.200119
0.200054
0.200017
0.200003
0.377039
0.376425
0.376002
0.375722
0.375521
0.375316
0.374999
0.374441
0.3735
0.372043
0.369995
0.367354
0.364153
0.360404
0.356077
0.351099
0.345343
0.338626
0.330697
0.321249
0.309984
0.296774
0.281908
0.26627
0.251189
0.237882
0.22698
0.218497
0.212106
0.207415
0.204127
0.202066
0.200995
0.200473
0.20023
0.200119
0.200064
0.200032
0.200012
0.200003
0.342058
0.341399
0.340975
0.340717
0.340531
0.340297
0.339869
0.339079
0.337745
0.335694
0.332785
0.328925
0.324038
0.318032
0.310778
0.302115
0.291906
0.280151
0.267167
0.253715
0.240884
0.229709
0.220783
0.214162
0.209525
0.206396
0.204316
0.202921
0.20196
0.201276
0.200789
0.200472
0.200277
0.20016
0.200093
0.200054
0.200032
0.200018
0.200008
0.200002
0.277964
0.277127
0.276571
0.276193
0.27586
0.275409
0.274642
0.27334
0.271282
0.268268
0.264159
0.258913
0.252599
0.245422
0.237729
0.229996
0.222751
0.216447
0.211364
0.207552
0.204878
0.2031
0.201962
0.201251
0.200813
0.200542
0.200372
0.200262
0.200188
0.200134
0.200096
0.200069
0.200049
0.200035
0.200025
0.200017
0.200012
0.200008
0.200004
0.200001
0.214918
0.214577
0.214342
0.214169
0.214001
0.21377
0.213398
0.212811
0.211951
0.210801
0.209397
0.20783
0.206227
0.204718
0.203408
0.202352
0.201557
0.200996
0.200619
0.200378
0.200228
0.200137
0.200084
0.200052
0.200033
0.200022
0.200016
0.200011
0.200009
0.200007
0.200006
0.200005
0.200004
0.200004
0.200003
0.200003
0.200003
0.200002
0.200001
0.200001
0.796444
0.788233
0.770326
0.746393
0.721349
0.69757
0.6758
0.656135
0.638444
0.62253
0.608186
0.595204
0.583394
0.572593
0.562674
0.553525
0.545048
0.537151
0.529757
0.5228
0.516216
0.509951
0.50395
0.498162
0.492537
0.487019
0.481551
0.476066
0.470487
0.464719
0.458645
0.452111
0.444913
0.436739
0.427039
0.414597
0.396368
0.364944
0.305394
0.22723
0.788237
0.775992
0.756561
0.733727
0.710534
0.688463
0.668062
0.649446
0.63255
0.617236
0.603345
0.590705
0.579154
0.568559
0.558809
0.549803
0.541449
0.53366
0.526367
0.519506
0.513019
0.506853
0.500959
0.49529
0.489797
0.484431
0.479134
0.473843
0.468476
0.462936
0.457097
0.4508
0.443829
0.435867
0.426359
0.414082
0.395971
0.364558
0.304855
0.226872
0.770332
0.75656
0.738039
0.717483
0.696733
0.676777
0.658062
0.640747
0.624841
0.610279
0.596956
0.584747
0.573532
0.563212
0.553694
0.544889
0.536709
0.529081
0.521941
0.515229
0.508893
0.502885
0.497162
0.491682
0.486401
0.481273
0.476243
0.471247
0.466199
0.46099
0.455484
0.449503
0.442821
0.435113
0.42582
0.413722
0.39574
0.36436
0.304551
0.226653
0.746393
0.733725
0.717483
0.699607
0.681386
0.663578
0.646593
0.630629
0.615761
0.601989
0.589264
0.577514
0.566671
0.556663
0.547414
0.538845
0.530876
0.523446
0.516494
0.509968
0.503822
0.498015
0.49251
0.487273
0.482267
0.477453
0.472778
0.468177
0.463557
0.458795
0.453731
0.448162
0.441843
0.434438
0.425389
0.413482
0.395635
0.364293
0.304392
0.226512
0.721347
0.710533
0.696733
0.681386
0.665479
0.649642
0.634261
0.619561
0.605665
0.592624
0.58045
0.569137
0.558661
0.548974
0.540008
0.531688
0.523951
0.516738
0.509994
0.503674
0.497739
0.492156
0.486898
0.481938
0.477253
0.472811
0.468569
0.464462
0.46039
0.456209
0.451722
0.446687
0.440823
0.433784
0.425014
0.413312
0.395596
0.364279
0.304263
0.22637
0.697569
0.688463
0.676777
0.663578
0.649642
0.6355
0.621506
0.607893
0.59481
0.582357
0.570623
0.559676
0.549528
0.540139
0.531444
0.523375
0.515871
0.508876
0.502342
0.496229
0.490505
0.485147
0.480137
0.475465
0.471119
0.467086
0.463338
0.459821
0.456431
0.452999
0.449273
0.444936
0.439656
0.433066
0.424621
0.413139
0.395544
0.364215
0.30402
0.226131
0.6758
0.668063
0.658063
0.646594
0.634261
0.621507
0.608638
0.595871
0.583362
0.571274
0.559792
0.549084
0.539185
0.530047
0.521594
0.513759
0.506474
0.499682
0.493339
0.487411
0.481872
0.47671
0.47192
0.467506
0.46348
0.459854
0.456632
0.453787
0.45123
0.448769
0.446075
0.442682
0.438173
0.432157
0.424105
0.412869
0.39538
0.363979
0.303492
0.225689
0.656135
0.649447
0.640748
0.63063
0.619562
0.607893
0.595871
0.583664
0.571426
0.559362
0.547791
0.537109
0.52734
0.518384
0.510137
0.502501
0.4954
0.488774
0.482579
0.476783
0.471369
0.466333
0.461684
0.457445
0.453655
0.450366
0.447635
0.4455
0.443934
0.442759
0.441544
0.439517
0.4361
0.430865
0.423323
0.41238
0.394982
0.363427
0.302491
0.224934
0.638444
0.632551
0.624842
0.615762
0.605665
0.59481
0.583362
0.571426
0.559076
0.546438
0.53398
0.522981
0.513196
0.504352
0.496253
0.488762
0.481782
0.475246
0.469107
0.463336
0.457919
0.45286
0.448181
0.443924
0.440159
0.436989
0.434556
0.433034
0.432577
0.43317
0.434332
0.434598
0.432953
0.428904
0.422085
0.411527
0.394216
0.36241
0.300823
0.223773
0.622531
0.617237
0.61028
0.60199
0.592625
0.582357
0.571274
0.559362
0.546438
0.532006
0.515505
0.503753
0.493835
0.485017
0.476965
0.46949
0.46247
0.455826
0.449505
0.443472
0.437713
0.432234