/*--------------------------------*- C++ -*----------------------------------*\
| =========                 |                                                 |
| \\      /  F ield         | OpenFOAM: The Open Source CFD Toolbox           |
|  \\    /   O peration     | Version:  1.6                                   |
|   \\  /    A nd           | Web:      www.OpenFOAM.org                      |
|    \\/     M anipulation  |                                                 |
\*---------------------------------------------------------------------------*/
FoamFile
{
    version     2.0;
    format      ascii;
    class       volScalarField;
    location    "0.1";
    object      T;
}
// * * * * * * * * * * * * * * * * * * * * * * * * * * * * * * * * * * * * * //

dimensions      [0 0 0 0 0 0 0];

internalField   nonuniform List<scalar> 
40000
(
1.17247e-08
1.08505e-08
1.04046e-08
1.00628e-08
9.78675e-09
9.56423e-09
9.38978e-09
9.26037e-09
9.17397e-09
9.12909e-09
9.12448e-09
9.15902e-09
9.2316e-09
9.34095e-09
9.48549e-09
9.66277e-09
9.86853e-09
1.00942e-08
1.03202e-08
1.0498e-08
3.72155e-08
3.46697e-08
3.33329e-08
3.22814e-08
3.14218e-08
3.07254e-08
3.01782e-08
2.97715e-08
2.94994e-08
2.93576e-08
2.93422e-08
2.94499e-08
2.96774e-08
3.0021e-08
3.0476e-08
3.10354e-08
3.16874e-08
3.24094e-08
3.31528e-08
3.38021e-08
6.94555e-08
6.51523e-08
6.28256e-08
6.09592e-08
5.9418e-08
5.81633e-08
5.71743e-08
5.64378e-08
5.59443e-08
5.56866e-08
5.56584e-08
5.58542e-08
5.62685e-08
5.68952e-08
5.77267e-08
5.8752e-08
5.99532e-08
6.12978e-08
6.27192e-08
6.40679e-08
1.15034e-07
1.08521e-07
1.04956e-07
1.02064e-07
9.96611e-08
9.76969e-08
9.61449e-08
9.49876e-08
9.42122e-08
9.38086e-08
9.37683e-08
9.40836e-08
9.47468e-08
9.57495e-08
9.70809e-08
9.87262e-08
1.00661e-07
1.02841e-07
1.05176e-07
1.07454e-07
1.82041e-07
1.7261e-07
1.67423e-07
1.63193e-07
1.59664e-07
1.56771e-07
1.54483e-07
1.52776e-07
1.51635e-07
1.51047e-07
1.51001e-07
1.51487e-07
1.52496e-07
1.54017e-07
1.56036e-07
1.58533e-07
1.61475e-07
1.64803e-07
1.6839e-07
1.71928e-07
2.81238e-07
2.67955e-07
2.60641e-07
2.5466e-07
2.49657e-07
2.45552e-07
2.42303e-07
2.39882e-07
2.38272e-07
2.37456e-07
2.37422e-07
2.38158e-07
2.39653e-07
2.41894e-07
2.44863e-07
2.48534e-07
2.52863e-07
2.57769e-07
2.63073e-07
2.68332e-07
4.2717e-07
4.08898e-07
3.9884e-07
3.90603e-07
3.83706e-07
3.78044e-07
3.73567e-07
3.70241e-07
3.68045e-07
3.66962e-07
3.66979e-07
3.68082e-07
3.70258e-07
3.73492e-07
3.77762e-07
3.83035e-07
3.89253e-07
3.96302e-07
4.03936e-07
4.11525e-07
6.39351e-07
6.14783e-07
6.01279e-07
5.90215e-07
5.80948e-07
5.73346e-07
5.67347e-07
5.62914e-07
5.60021e-07
5.58652e-07
5.58793e-07
5.6043e-07
5.6355e-07
5.68134e-07
5.74158e-07
5.81579e-07
5.90319e-07
6.00227e-07
6.10963e-07
6.21653e-07
9.43519e-07
9.11258e-07
8.93571e-07
8.79084e-07
8.66959e-07
8.5703e-07
8.49224e-07
8.43498e-07
8.39829e-07
8.38197e-07
8.38591e-07
8.40998e-07
8.45405e-07
8.51793e-07
8.60131e-07
8.70367e-07
8.82399e-07
8.96027e-07
9.10792e-07
9.25509e-07
1.37289e-06
1.33158e-06
1.30902e-06
1.29056e-06
1.27514e-06
1.26256e-06
1.25272e-06
1.24558e-06
1.24112e-06
1.23933e-06
1.24018e-06
1.24368e-06
1.24982e-06
1.25856e-06
1.26988e-06
1.28371e-06
1.29992e-06
1.31825e-06
1.3381e-06
1.35789e-06
1.96926e-06
1.91779e-06
1.88984e-06
1.86702e-06
1.84801e-06
1.83257e-06
1.82061e-06
1.81207e-06
1.80693e-06
1.80519e-06
1.80683e-06
1.81186e-06
1.82025e-06
1.832e-06
1.84705e-06
1.86533e-06
1.88668e-06
1.91075e-06
1.93679e-06
1.96276e-06
2.78379e-06
2.72156e-06
2.68801e-06
2.66073e-06
2.63811e-06
2.61988e-06
2.60592e-06
2.59619e-06
2.59068e-06
2.58936e-06
2.59226e-06
2.59935e-06
2.61063e-06
2.62609e-06
2.64567e-06
2.66927e-06
2.69669e-06
2.72753e-06
2.7608e-06
2.79396e-06
3.87716e-06
3.80441e-06
3.76558e-06
3.73418e-06
3.70834e-06
3.68773e-06
3.67224e-06
3.66182e-06
3.65647e-06
3.65617e-06
3.66093e-06
3.67075e-06
3.68562e-06
3.70552e-06
3.73037e-06
3.76007e-06
3.79437e-06
3.83276e-06
3.87406e-06
3.91519e-06
5.31901e-06
5.23713e-06
5.19403e-06
5.15946e-06
5.13131e-06
5.10922e-06
5.09308e-06
5.08283e-06
5.07848e-06
5.08e-06
5.08741e-06
5.1007e-06
5.11985e-06
5.14483e-06
5.17556e-06
5.21189e-06
5.25352e-06
5.29986e-06
5.34951e-06
5.39885e-06
7.18621e-06
7.09806e-06
7.05252e-06
7.01646e-06
6.98755e-06
6.96544e-06
6.95e-06
6.94117e-06
6.93895e-06
6.94331e-06
6.95425e-06
6.97175e-06
6.99579e-06
7.02629e-06
7.06316e-06
7.10621e-06
7.15508e-06
7.20908e-06
7.26665e-06
7.32368e-06
9.56024e-06
9.47027e-06
9.42503e-06
9.38988e-06
9.36242e-06
9.34229e-06
9.32933e-06
9.32351e-06
9.32477e-06
9.3331e-06
9.34845e-06
9.37079e-06
9.40005e-06
9.43613e-06
9.47888e-06
9.52807e-06
9.58327e-06
9.64373e-06
9.70772e-06
9.77084e-06
1.25235e-05
1.24377e-05
1.23962e-05
1.23651e-05
1.23418e-05
1.2326e-05
1.23176e-05
1.23166e-05
1.23228e-05
1.23361e-05
1.23566e-05
1.2384e-05
1.24184e-05
1.24595e-05
1.25071e-05
1.2561e-05
1.26206e-05
1.26851e-05
1.27528e-05
1.28191e-05
1.61555e-05
1.60807e-05
1.60471e-05
1.60233e-05
1.60071e-05
1.59982e-05
1.59965e-05
1.60018e-05
1.60141e-05
1.60332e-05
1.6059e-05
1.60914e-05
1.613e-05
1.61747e-05
1.62253e-05
1.62812e-05
1.63421e-05
1.64071e-05
1.64743e-05
1.65397e-05
2.05288e-05
2.04725e-05
2.04505e-05
2.04372e-05
2.04308e-05
2.0431e-05
2.04376e-05
2.04505e-05
2.04694e-05
2.04943e-05
2.05249e-05
2.05609e-05
2.0602e-05
2.0648e-05
2.06984e-05
2.07529e-05
2.08107e-05
2.08712e-05
2.09328e-05
2.09919e-05
2.57079e-05
2.56763e-05
2.56691e-05
2.56686e-05
2.56737e-05
2.56841e-05
2.56997e-05
2.57202e-05
2.57453e-05
2.57748e-05
2.58085e-05
2.58459e-05
2.58866e-05
2.59304e-05
2.59766e-05
2.60249e-05
2.60746e-05
2.61251e-05
2.6175e-05
2.62219e-05
3.17498e-05
3.17469e-05
3.17558e-05
3.17689e-05
3.17856e-05
3.18059e-05
3.18295e-05
3.18561e-05
3.18854e-05
3.19171e-05
3.19508e-05
3.1986e-05
3.20224e-05
3.20595e-05
3.20967e-05
3.21336e-05
3.21697e-05
3.22043e-05
3.22368e-05
3.2266e-05
3.87096e-05
3.87356e-05
3.87596e-05
3.87848e-05
3.88112e-05
3.88389e-05
3.88677e-05
3.88971e-05
3.89269e-05
3.89567e-05
3.89861e-05
3.90146e-05
3.90418e-05
3.90672e-05
3.90904e-05
3.91108e-05
3.91283e-05
3.91424e-05
3.91531e-05
3.91606e-05
4.66514e-05
4.67021e-05
4.67374e-05
4.67705e-05
4.68024e-05
4.68329e-05
4.6862e-05
4.68893e-05
4.69145e-05
4.69371e-05
4.69569e-05
4.69735e-05
4.69864e-05
4.69954e-05
4.70001e-05
4.70003e-05
4.69958e-05
4.69868e-05
4.69739e-05
4.69587e-05
5.56639e-05
5.57304e-05
5.57705e-05
5.58053e-05
5.58363e-05
5.58635e-05
5.58866e-05
5.59056e-05
5.59202e-05
5.593e-05
5.5935e-05
5.59348e-05
5.59292e-05
5.59183e-05
5.5902e-05
5.58803e-05
5.58536e-05
5.58223e-05
5.57876e-05
5.57525e-05
6.58796e-05
6.59494e-05
6.59862e-05
6.60153e-05
6.60382e-05
6.60551e-05
6.60659e-05
6.60706e-05
6.60691e-05
6.60614e-05
6.60474e-05
6.60273e-05
6.60012e-05
6.59695e-05
6.59325e-05
6.58908e-05
6.58451e-05
6.57963e-05
6.57461e-05
6.56982e-05
7.74952e-05
7.75544e-05
7.75799e-05
7.7596e-05
7.76044e-05
7.76053e-05
7.75988e-05
7.7585e-05
7.75642e-05
7.75365e-05
7.75024e-05
7.74624e-05
7.74172e-05
7.73675e-05
7.73141e-05
7.72582e-05
7.72008e-05
7.71433e-05
7.70877e-05
7.70373e-05
9.07886e-05
9.08253e-05
9.08333e-05
9.08317e-05
9.08218e-05
9.08039e-05
9.07783e-05
9.07454e-05
9.07057e-05
9.06599e-05
9.06088e-05
9.05533e-05
9.04945e-05
9.04338e-05
9.03724e-05
9.03117e-05
9.02534e-05
9.01988e-05
9.01498e-05
9.01088e-05
0.00010613
0.000106137
0.000106126
0.000106106
0.000106078
0.000106043
0.000106001
0.000105953
0.0001059
0.000105843
0.000105782
0.00010572
0.000105658
0.000105597
0.000105539
0.000105486
0.000105439
0.000105399
0.000105368
0.000105347
0.000123985
0.000123962
0.000123934
0.0001239
0.00012386
0.000123814
0.000123764
0.00012371
0.000123654
0.000123596
0.000123538
0.000123482
0.000123429
0.000123381
0.000123339
0.000123305
0.00012328
0.000123264
0.000123259
0.000123263
0.000144904
0.00014486
0.000144823
0.000144783
0.00014474
0.000144694
0.000144647
0.0001446
0.000144553
0.000144508
0.000144466
0.00014443
0.000144399
0.000144375
0.00014436
0.000144354
0.000144357
0.00014437
0.000144392
0.000144419
0.000169514
0.000169463
0.000169427
0.000169392
0.000169358
0.000169324
0.000169292
0.000169264
0.000169239
0.000169219
0.000169205
0.000169199
0.000169199
0.000169208
0.000169225
0.000169249
0.00016928
0.000169318
0.000169358
0.000169399
0.000198508
0.000198464
0.00019844
0.00019842
0.000198403
0.000198391
0.000198384
0.000198383
0.000198388
0.0001984
0.00019842
0.000198447
0.000198482
0.000198522
0.000198568
0.000198617
0.000198668
0.000198719
0.000198766
0.000198806
0.000232638
0.000232613
0.000232607
0.000232607
0.000232613
0.000232626
0.000232646
0.000232674
0.00023271
0.000232753
0.000232803
0.000232859
0.00023292
0.000232983
0.000233047
0.000233108
0.000233164
0.000233212
0.00023325
0.000233276
0.000272734
0.000272733
0.000272745
0.000272765
0.000272792
0.000272826
0.000272869
0.000272918
0.000272975
0.000273039
0.000273107
0.000273178
0.000273249
0.000273318
0.000273383
0.000273439
0.000273484
0.000273516
0.000273533
0.000273534
0.000319738
0.000319756
0.000319781
0.000319812
0.000319851
0.000319897
0.00031995
0.000320008
0.000320071
0.000320137
0.000320205
0.000320271
0.000320334
0.000320391
0.000320438
0.000320474
0.000320496
0.000320503
0.000320495
0.000320474
0.000374748
0.000374775
0.000374802
0.000374835
0.000374874
0.000374918
0.000374966
0.000375017
0.000375069
0.000375121
0.00037517
0.000375214
0.000375252
0.00037528
0.000375299
0.000375306
0.000375302
0.000375286
0.00037526
0.000375227
0.000439077
0.0004391
0.000439121
0.000439146
0.000439175
0.000439206
0.000439238
0.00043927
0.000439299
0.000439324
0.000439343
0.000439356
0.00043936
0.000439357
0.000439345
0.000439326
0.000439301
0.000439273
0.000439243
0.000439216
0.000514307
0.000514317
0.000514327
0.00051434
0.000514353
0.000514367
0.000514379
0.000514388
0.000514392
0.000514389
0.00051438
0.000514363
0.000514339
0.000514311
0.000514278
0.000514245
0.000514214
0.000514188
0.00051417
0.000514161
0.00060233
0.000602327
0.000602327
0.000602328
0.000602329
0.000602329
0.000602326
0.000602318
0.000602304
0.000602283
0.000602257
0.000602224
0.000602188
0.00060215
0.000602114
0.000602082
0.000602059
0.000602047
0.000602047
0.000602059
0.000705387
0.000705376
0.00070537
0.000705366
0.000705362
0.000705357
0.000705348
0.000705336
0.000705318
0.000705296
0.000705269
0.000705238
0.000705207
0.000705178
0.000705153
0.000705135
0.000705128
0.000705131
0.000705146
0.00070517
0.000826095
0.000826084
0.000826079
0.000826077
0.000826076
0.000826074
0.00082607
0.000826065
0.000826056
0.000826045
0.000826032
0.000826018
0.000826005
0.000825994
0.000825987
0.000825986
0.000825991
0.000826003
0.00082602
0.000826041
0.000967498
0.000967492
0.000967492
0.000967495
0.0009675
0.000967505
0.000967512
0.000967518
0.000967524
0.000967529
0.000967535
0.000967541
0.000967547
0.000967554
0.000967561
0.000967569
0.000967577
0.000967585
0.000967591
0.000967597
0.00113313
0.00113313
0.00113313
0.00113314
0.00113315
0.00113316
0.00113317
0.00113319
0.0011332
0.00113322
0.00113324
0.00113326
0.00113327
0.00113329
0.0011333
0.00113331
0.00113331
0.00113331
0.0011333
0.00113329
0.00132711
0.00132712
0.00132712
0.00132713
0.00132714
0.00132714
0.00132716
0.00132717
0.00132718
0.0013272
0.00132722
0.00132724
0.00132726
0.00132727
0.00132728
0.00132728
0.00132727
0.00132726
0.00132725
0.00132724
0.00155428
0.00155428
0.00155428
0.00155428
0.00155429
0.00155429
0.00155429
0.00155429
0.0015543
0.00155431
0.00155432
0.00155433
0.00155434
0.00155434
0.00155435
0.00155435
0.00155435
0.00155434
0.00155434
0.00155433
0.00182029
0.00182029
0.00182029
0.00182028
0.00182028
0.00182027
0.00182026
0.00182025
0.00182024
0.00182024
0.00182024
0.00182024
0.00182024
0.00182025
0.00182026
0.00182026
0.00182028
0.00182029
0.0018203
0.00182031
0.00213179
0.00213179
0.00213179
0.00213178
0.00213177
0.00213175
0.00213174
0.00213172
0.0021317
0.00213169
0.00213168
0.00213168
0.00213168
0.00213169
0.0021317
0.00213173
0.00213175
0.00213178
0.0021318
0.00213181
0.00249657
0.00249657
0.00249657
0.00249656
0.00249655
0.00249653
0.00249651
0.00249649
0.00249647
0.00249645
0.00249644
0.00249643
0.00249644
0.00249645
0.00249647
0.0024965
0.00249653
0.00249655
0.00249657
0.00249657
0.00292374
0.00292374
0.00292374
0.00292373
0.00292372
0.0029237
0.00292368
0.00292366
0.00292364
0.00292363
0.00292361
0.0029236
0.0029236
0.00292361
0.00292363
0.00292365
0.00292366
0.00292367
0.00292366
0.00292365
0.00342398
0.00342397
0.00342397
0.00342396
0.00342395
0.00342394
0.00342392
0.0034239
0.00342388
0.00342386
0.00342385
0.00342383
0.00342383
0.00342382
0.00342382
0.00342382
0.00342381
0.0034238
0.00342379
0.00342379
0.0040098
0.00400979
0.00400978
0.00400977
0.00400976
0.00400975
0.00400973
0.00400972
0.0040097
0.00400968
0.00400966
0.00400964
0.00400963
0.00400961
0.0040096
0.00400958
0.00400957
0.00400957
0.00400957
0.00400958
0.00469586
0.00469585
0.00469584
0.00469584
0.00469582
0.00469581
0.0046958
0.00469578
0.00469577
0.00469575
0.00469574
0.00469573
0.00469572
0.00469571
0.0046957
0.00469569
0.00469569
0.0046957
0.00469573
0.00469576
0.00549934
0.00549934
0.00549934
0.00549933
0.00549932
0.0054993
0.00549929
0.00549928
0.00549927
0.00549927
0.00549927
0.00549928
0.00549928
0.00549929
0.0054993
0.00549931
0.00549933
0.00549936
0.00549939
0.00549941
0.00644034
0.00644034
0.00644034
0.00644033
0.00644032
0.0064403
0.00644029
0.00644029
0.00644029
0.0064403
0.00644032
0.00644034
0.00644036
0.00644039
0.00644041
0.00644044
0.00644046
0.00644047
0.00644046
0.00644044
0.00754234
0.00754235
0.00754234
0.00754233
0.00754231
0.0075423
0.00754229
0.00754229
0.0075423
0.00754232
0.00754234
0.00754237
0.00754239
0.00754242
0.00754243
0.00754243
0.00754242
0.00754238
0.00754233
0.00754227
0.00883286
0.00883286
0.00883285
0.00883284
0.00883282
0.00883281
0.0088328
0.00883281
0.00883282
0.00883283
0.00883285
0.00883286
0.00883287
0.00883286
0.00883284
0.0088328
0.00883274
0.00883267
0.00883261
0.00883256
0.0103442
0.0103441
0.0103441
0.0103441
0.0103441
0.0103441
0.0103441
0.0103441
0.0103441
0.0103441
0.0103441
0.0103441
0.0103441
0.010344
0.010344
0.0103439
0.0103439
0.0103438
0.0103438
0.0103438
0.012114
0.012114
0.012114
0.012114
0.012114
0.012114
0.012114
0.012114
0.012114
0.012114
0.012114
0.012114
0.0121139
0.0121139
0.0121138
0.0121138
0.0121137
0.0121138
0.0121138
0.0121138
0.0141868
0.0141868
0.0141868
0.0141868
0.0141868
0.0141868
0.0141868
0.0141868
0.0141868
0.0141868
0.0141868
0.0141868
0.0141867
0.0141867
0.0141867
0.0141867
0.0141867
0.0141868
0.0141868
0.0141869
0.0166142
0.0166142
0.0166143
0.0166143
0.0166143
0.0166143
0.0166143
0.0166143
0.0166143
0.0166143
0.0166143
0.0166143
0.0166142
0.0166142
0.0166143
0.0166143
0.0166144
0.0166144
0.0166144
0.0166144
0.0194571
0.0194571
0.0194571
0.0194572
0.0194572
0.0194572
0.0194572
0.0194572
0.0194571
0.0194571
0.0194571
0.0194571
0.0194571
0.0194572
0.0194572
0.0194572
0.0194573
0.0194573
0.0194572
0.0194572
0.0227864
0.0227864
0.0227864
0.0227864
0.0227864
0.0227864
0.0227864
0.0227864
0.0227864
0.0227864
0.0227864
0.0227864
0.0227864
0.0227865
0.0227865
0.0227865
0.0227864
0.0227864
0.0227864
0.0227863
0.0266853
0.0266853
0.0266853
0.0266853
0.0266853
0.0266853
0.0266853
0.0266853
0.0266853
0.0266853
0.0266853
0.0266853
0.0266853
0.0266853
0.0266853
0.0266853
0.0266852
0.0266852
0.0266852
0.0266852
0.0312513
0.0312513
0.0312513
0.0312513
0.0312513
0.0312514
0.0312514
0.0312514
0.0312514
0.0312514
0.0312514
0.0312514
0.0312514
0.0312513
0.0312513
0.0312513
0.0312513
0.0312513
0.0312513
0.0312513
0.0365987
0.0365986
0.0365986
0.0365987
0.0365987
0.0365987
0.0365987
0.0365988
0.0365988
0.0365987
0.0365987
0.0365987
0.0365987
0.0365986
0.0365986
0.0365986
0.0365986
0.0365986
0.0365987
0.0365987
0.0428609
0.0428609
0.0428609
0.042861
0.042861
0.042861
0.042861
0.042861
0.042861
0.042861
0.042861
0.042861
0.042861
0.0428609
0.0428609
0.0428609
0.042861
0.042861
0.042861
0.042861
0.0501948
0.0501948
0.0501948
0.0501948
0.0501948
0.0501949
0.0501949
0.0501949
0.0501948
0.0501948
0.0501948
0.0501948
0.0501948
0.0501948
0.0501948
0.0501948
0.0501948
0.0501948
0.0501948
0.0501949
0.0587835
0.0587835
0.0587835
0.0587835
0.0587835
0.0587835
0.0587835
0.0587835
0.0587835
0.0587836
0.0587836
0.0587836
0.0587836
0.0587836
0.0587836
0.0587836
0.0587836
0.0587836
0.0587836
0.0587836
0.0688418
0.0688418
0.0688419
0.0688418
0.0688418
0.0688418
0.0688418
0.0688418
0.0688418
0.0688418
0.0688419
0.0688419
0.0688419
0.0688419
0.0688419
0.0688418
0.0688418
0.0688418
0.0688418
0.0688418
0.0806212
0.0806212
0.0806212
0.0806212
0.0806212
0.0806212
0.0806211
0.0806211
0.0806212
0.0806212
0.0806212
0.0806212
0.0806212
0.0806212
0.0806212
0.0806212
0.0806211
0.0806211
0.0806211
0.0806211
0.0944161
0.0944161
0.094416
0.094416
0.094416
0.094416
0.094416
0.094416
0.094416
0.094416
0.094416
0.094416
0.094416
0.094416
0.094416
0.094416
0.094416
0.094416
0.094416
0.094416
0.110571
0.110571
0.110571
0.110571
0.110571
0.110571
0.110571
0.110571
0.110571
0.110571
0.110571
0.110571
0.110571
0.110571
0.110571
0.110571
0.110571
0.110571
0.110571
0.110571
0.129491
0.129491
0.129491
0.129491
0.129491
0.129491
0.129491
0.129491
0.129491
0.129491
0.129491
0.129491
0.129491
0.129491
0.129491
0.129491
0.129491
0.129491
0.129491
0.129491
0.151648
0.151648
0.151648
0.151648
0.151648
0.151648
0.151648
0.151648
0.151648
0.151648
0.151648
0.151648
0.151648
0.151648
0.151648
0.151648
0.151648
0.151648
0.151648
0.151648
0.177596
0.177596
0.177596
0.177596
0.177596
0.177596
0.177596
0.177596
0.177596
0.177596
0.177596
0.177596
0.177596
0.177596
0.177596
0.177596
0.177596
0.177596
0.177596
0.177596
0.207984
0.207984
0.207984
0.207984
0.207984
0.207984
0.207984
0.207984
0.207984
0.207984
0.207983
0.207983
0.207984
0.207984
0.207984
0.207984
0.207983
0.207983
0.207983
0.207983
0.243571
0.243571
0.243571
0.243571
0.243571
0.243571
0.243571
0.243571
0.243571
0.243571
0.243571
0.243571
0.243571
0.243571
0.243571
0.243571
0.243571
0.243571
0.243571
0.243571
0.285248
0.285248
0.285248
0.285248
0.285248
0.285248
0.285248
0.285248
0.285248
0.285248
0.285248
0.285248
0.285248
0.285248
0.285248
0.285248
0.285248
0.285248
0.285248
0.285248
0.334056
0.334056
0.334056
0.334056
0.334056
0.334056
0.334056
0.334056
0.334056
0.334056
0.334056
0.334056
0.334056
0.334056
0.334056
0.334056
0.334056
0.334056
0.334056
0.334056
0.391215
0.391215
0.391215
0.391215
0.391215
0.391215
0.391215
0.391215
0.391215
0.391215
0.391215
0.391215
0.391215
0.391215
0.391215
0.391215
0.391215
0.391215
0.391215
0.391215
0.458155
0.458155
0.458155
0.458155
0.458155
0.458155
0.458155
0.458155
0.458155
0.458155
0.458155
0.458155
0.458155
0.458155
0.458155
0.458155
0.458155
0.458155
0.458155
0.458155
0.536548
0.536548
0.536548
0.536548
0.536548
0.536548
0.536548
0.536548
0.536548
0.536548
0.536548
0.536548
0.536548
0.536548
0.536548
0.536548
0.536548
0.536548
0.536548
0.536548
0.628356
0.628356
0.628356
0.628356
0.628356
0.628356
0.628356
0.628356
0.628356
0.628356
0.628356
0.628356
0.628356
0.628356
0.628356
0.628356
0.628356
0.628356
0.628356
0.628356
0.735872
0.735872
0.735872
0.735872
0.735872
0.735872
0.735872
0.735872
0.735872
0.735872
0.735872
0.735872
0.735872
0.735872
0.735872
0.735872
0.735872
0.735872
0.735872
0.735872
0.861785
0.861785
0.861785
0.861785
0.861785
0.861785
0.861785
0.861785
0.861785
0.861785
0.861785
0.861785
0.861785
0.861785
0.861785
0.861785
0.861785
0.861785
0.861785
0.861785
1.00924
1.00924
1.00924
1.00924
1.00924
1.00924
1.00924
1.00924
1.00924
1.00924
1.00924
1.00924
1.00924
1.00924
1.00924
1.00924
1.00924
1.00924
1.00924
1.00924
1.18193
1.18193
1.18193
1.18193
1.18193
1.18193
1.18193
1.18193
1.18193
1.18193
1.18193
1.18193
1.18193
1.18193
1.18193
1.18193
1.18193
1.18193
1.18193
1.18193
1.38417
1.38417
1.38417
1.38417
1.38417
1.38417
1.38417
1.38417
1.38417
1.38417
1.38417
1.38417
1.38417
1.38417
1.38417
1.38417
1.38417
1.38417
1.38417
1.38417
1.62101
1.62101
1.62101
1.62101
1.62101
1.62101
1.62101
1.62101
1.62101
1.62101
1.62101
1.62101
1.62101
1.62101
1.62101
1.62101
1.62101
1.62101
1.62101
1.62101
1.89838
1.89838
1.89838
1.89838
1.89838
1.89838
1.89838
1.89838
1.89838
1.89838
1.89838
1.89838
1.89838
1.89838
1.89838
1.89838
1.89838
1.89838
1.89838
1.89838
2.2232
2.2232
2.2232
2.2232
2.2232
2.2232
2.2232
2.2232
2.2232
2.2232
2.2232
2.2232
2.2232
2.2232
2.2232
2.2232
2.2232
2.2232
2.2232
2.2232
2.60361
2.60361
2.60361
2.60361
2.60361
2.60361
2.60361
2.60361
2.60361
2.60361
2.60361
2.60361
2.60361
2.60361
2.60361
2.60361
2.60361
2.60361
2.60361
2.60361
3.0491
3.0491
3.0491
3.0491
3.0491
3.0491
3.0491
3.0491
3.0491
3.0491
3.0491
3.0491
3.0491
3.0491
3.0491
3.0491
3.0491
3.0491
3.0491
3.0491
3.57083
3.57083
3.57083
3.57083
3.57083
3.57083
3.57083
3.57083
3.57083
3.57083
3.57083
3.57083
3.57083
3.57083
3.57083
3.57083
3.57083
3.57083
3.57083
3.57083
4.18182
4.18182
4.18182
4.18182
4.18182
4.18182
4.18182
4.18182
4.18182
4.18182
4.18182
4.18182
4.18182
4.18182
4.18182
4.18182
4.18182
4.18182
4.18182
4.18182
4.89736
4.89736
4.89736
4.89736
4.89736
4.89736
4.89736
4.89736
4.89736
4.89736
4.89736
4.89736
4.89736
4.89736
4.89736
4.89736
4.89736
4.89736
4.89736
4.89736
5.73533
5.73533
5.73533
5.73533
5.73533
5.73533
5.73533
5.73533
5.73533
5.73533
5.73533
5.73533
5.73533
5.73533
5.73533
5.73533
5.73533
5.73533
5.73533
5.73534
6.71669
6.71669
6.71669
6.71669
6.71669
6.71669
6.71669
6.71669
6.71669
6.71669
6.71669
6.71669
6.71669
6.71669
6.71669
6.71669
6.71669
6.71669
6.71669
6.71669
7.86597
7.86597
7.86597
7.86597
7.86597
7.86597
7.86597
7.86597
7.86597
7.86597
7.86597
7.86597
7.86597
7.86597
7.86597
7.86597
7.86597
7.86597
7.86597
7.86597
9.21189
9.21189
9.21189
9.21189
9.21189
9.21189
9.21189
9.21189
9.21189
9.21189
9.21189
9.21189
9.21189
9.21189
9.21189
9.21189
9.21189
9.21189
9.21189
9.21189
1.08505e-08
1.01301e-08
9.72493e-09
9.40263e-09
9.13894e-09
8.92523e-09
8.75718e-09
8.63219e-09
8.54845e-09
8.50456e-09
8.49934e-09
8.53175e-09
8.60074e-09
8.70522e-09
8.84385e-09
9.01473e-09
9.21479e-09
9.43832e-09
9.67325e-09
9.88996e-09
3.46697e-08
3.25914e-08
3.13716e-08
3.03741e-08
2.95486e-08
2.88763e-08
2.83464e-08
2.79515e-08
2.76863e-08
2.75468e-08
2.75293e-08
2.76308e-08
2.78481e-08
2.8178e-08
2.86166e-08
2.91586e-08
2.97959e-08
3.05152e-08
3.12942e-08
3.20993e-08
6.51523e-08
6.16287e-08
5.9492e-08
5.77114e-08
5.62238e-08
5.50065e-08
5.40441e-08
5.33254e-08
5.2842e-08
5.25872e-08
5.25552e-08
5.27407e-08
5.31386e-08
5.37435e-08
5.45494e-08
5.5548e-08
5.67281e-08
5.80741e-08
5.95686e-08
6.12207e-08
1.08521e-07
1.03163e-07
9.98714e-08
9.70998e-08
9.47696e-08
9.28554e-08
9.13382e-08
9.02039e-08
8.94409e-08
8.904e-08
8.89933e-08
8.92935e-08
8.99335e-08
9.09061e-08
9.22026e-08
9.38125e-08
9.5722e-08
9.79139e-08
1.00378e-07
1.03164e-07
1.7261e-07
1.64815e-07
1.60004e-07
1.55931e-07
1.52494e-07
1.49663e-07
1.47417e-07
1.45736e-07
1.44608e-07
1.44021e-07
1.43965e-07
1.44431e-07
1.45409e-07
1.46891e-07
1.48866e-07
1.5132e-07
1.54237e-07
1.57596e-07
1.61394e-07
1.65724e-07
2.67955e-07
2.5693e-07
2.50117e-07
2.44333e-07
2.39441e-07
2.35406e-07
2.32202e-07
2.29809e-07
2.2821e-07
2.27391e-07
2.27341e-07
2.2805e-07
2.29506e-07
2.317e-07
2.34617e-07
2.38241e-07
2.42552e-07
2.47524e-07
2.53159e-07
2.59605e-07
4.08898e-07
3.93669e-07
3.8426e-07
3.76262e-07
3.69489e-07
3.63901e-07
3.59468e-07
3.56165e-07
3.53975e-07
3.52883e-07
3.52876e-07
3.53943e-07
3.56073e-07
3.59253e-07
3.63468e-07
3.68697e-07
3.74913e-07
3.82088e-07
3.90224e-07
3.99544e-07
6.14783e-07
5.94226e-07
5.81543e-07
5.70756e-07
5.61619e-07
5.54086e-07
5.48121e-07
5.43699e-07
5.40801e-07
5.39412e-07
5.39519e-07
5.41112e-07
5.4418e-07
5.48709e-07
5.54681e-07
5.62072e-07
5.70847e-07
5.8097e-07
5.92451e-07
6.05603e-07
9.11258e-07
8.84162e-07
8.67487e-07
8.53308e-07
8.41306e-07
8.31427e-07
8.23634e-07
8.17899e-07
8.14205e-07
8.12538e-07
8.12887e-07
8.15244e-07
8.19598e-07
8.25937e-07
8.3424e-07
8.44478e-07
8.56608e-07
8.70585e-07
8.86424e-07
9.04561e-07
1.33158e-06
1.29677e-06
1.27542e-06
1.25729e-06
1.24197e-06
1.22939e-06
1.21953e-06
1.21236e-06
1.20785e-06
1.206e-06
1.2068e-06
1.21025e-06
1.21633e-06
1.22505e-06
1.23637e-06
1.25026e-06
1.26667e-06
1.28553e-06
1.30689e-06
1.33131e-06
1.91779e-06
1.87428e-06
1.84774e-06
1.82525e-06
1.80629e-06
1.79082e-06
1.77878e-06
1.77016e-06
1.76494e-06
1.76312e-06
1.7647e-06
1.76968e-06
1.77805e-06
1.7898e-06
1.80492e-06
1.82335e-06
1.84505e-06
1.86992e-06
1.89801e-06
1.93009e-06
2.72156e-06
2.66881e-06
2.63687e-06
2.60989e-06
2.58726e-06
2.56892e-06
2.55483e-06
2.54497e-06
2.53933e-06
2.53793e-06
2.54076e-06
2.54782e-06
2.55913e-06
2.57466e-06
2.59441e-06
2.6183e-06
2.64627e-06
2.67822e-06
2.7142e-06
2.75519e-06
3.80441e-06
3.74261e-06
3.70555e-06
3.6744e-06
3.64847e-06
3.62767e-06
3.61199e-06
3.60139e-06
3.59589e-06
3.5955e-06
3.60021e-06
3.61006e-06
3.62502e-06
3.6451e-06
3.67026e-06
3.70044e-06
3.73554e-06
3.77545e-06
3.8202e-06
3.87102e-06
5.23713e-06
5.16748e-06
5.12625e-06
5.09188e-06
5.06357e-06
5.04123e-06
5.02483e-06
5.01438e-06
5.00987e-06
5.01132e-06
5.01874e-06
5.03213e-06
5.05149e-06
5.0768e-06
5.10802e-06
5.14507e-06
5.18781e-06
5.23611e-06
5.29e-06
5.35092e-06
7.09806e-06
7.02304e-06
6.97943e-06
6.94352e-06
6.91439e-06
6.89199e-06
6.87628e-06
6.86726e-06
6.86491e-06
6.86926e-06
6.8803e-06
6.89803e-06
6.92243e-06
6.95346e-06
6.99105e-06
7.03509e-06
7.08541e-06
7.14182e-06
7.20437e-06
7.27465e-06
9.47027e-06
9.39375e-06
9.35045e-06
9.31543e-06
9.28775e-06
9.26735e-06
9.25417e-06
9.24822e-06
9.24946e-06
9.2579e-06
9.2735e-06
9.29624e-06
9.32607e-06
9.3629e-06
9.40663e-06
9.45709e-06
9.51407e-06
9.57733e-06
9.64688e-06
9.72443e-06
1.24377e-05
1.23649e-05
1.23253e-05
1.22943e-05
1.22709e-05
1.2255e-05
1.22465e-05
1.22455e-05
1.22518e-05
1.22655e-05
1.22864e-05
1.23145e-05
1.23497e-05
1.23917e-05
1.24406e-05
1.2496e-05
1.25576e-05
1.26252e-05
1.26987e-05
1.27798e-05
1.60807e-05
1.60179e-05
1.5986e-05
1.59624e-05
1.59463e-05
1.59375e-05
1.59359e-05
1.59415e-05
1.59542e-05
1.59739e-05
1.60004e-05
1.60336e-05
1.60733e-05
1.61192e-05
1.61712e-05
1.62289e-05
1.62919e-05
1.63599e-05
1.64328e-05
1.6512e-05
2.04725e-05
2.04259e-05
2.04055e-05
2.03927e-05
2.03866e-05
2.03872e-05
2.03943e-05
2.04077e-05
2.04274e-05
2.04532e-05
2.04847e-05
2.05218e-05
2.05642e-05
2.06115e-05
2.06635e-05
2.07196e-05
2.07795e-05
2.08428e-05
2.09091e-05
2.09798e-05
2.56763e-05
2.56515e-05
2.56456e-05
2.56459e-05
2.56517e-05
2.56629e-05
2.56793e-05
2.57008e-05
2.5727e-05
2.57577e-05
2.57925e-05
2.58312e-05
2.58733e-05
2.59184e-05
2.5966e-05
2.60158e-05
2.60671e-05
2.61195e-05
2.61728e-05
2.62276e-05
3.17469e-05
3.17472e-05
3.17571e-05
3.17712e-05
3.17891e-05
3.18106e-05
3.18354e-05
3.18633e-05
3.18939e-05
3.19269e-05
3.19619e-05
3.19984e-05
3.20361e-05
3.20742e-05
3.21125e-05
3.21504e-05
3.21873e-05
3.22228e-05
3.22565e-05
3.22887e-05
3.87356e-05
3.87611e-05
3.87858e-05
3.88122e-05
3.884e-05
3.88691e-05
3.88993e-05
3.89302e-05
3.89614e-05
3.89925e-05
3.9023e-05
3.90526e-05
3.90806e-05
3.91066e-05
3.91302e-05
3.91508e-05
3.9168e-05
3.91816e-05
3.9191e-05
3.91961e-05
4.67021e-05
4.67487e-05
4.67842e-05
4.68185e-05
4.68518e-05
4.68838e-05
4.69142e-05
4.69428e-05
4.6969e-05
4.69926e-05
4.70132e-05
4.70302e-05
4.70433e-05
4.70521e-05
4.70563e-05
4.70556e-05
4.70498e-05
4.70387e-05
4.70221e-05
4.69993e-05
5.57304e-05
5.57898e-05
5.58296e-05
5.58653e-05
5.58974e-05
5.59256e-05
5.59497e-05
5.59694e-05
5.59844e-05
5.59944e-05
5.59993e-05
5.59987e-05
5.59924e-05
5.59803e-05
5.59625e-05
5.59388e-05
5.59095e-05
5.58748e-05
5.58347e-05
5.57884e-05
6.59494e-05
6.60102e-05
6.60461e-05
6.60754e-05
6.60987e-05
6.61159e-05
6.61268e-05
6.61312e-05
6.61292e-05
6.61206e-05
6.61055e-05
6.60838e-05
6.6056e-05
6.60221e-05
6.59826e-05
6.5938e-05
6.58889e-05
6.5836e-05
6.57797e-05
6.57194e-05
7.75544e-05
7.76044e-05
7.76282e-05
7.76437e-05
7.76515e-05
7.76515e-05
7.76439e-05
7.76287e-05
7.76061e-05
7.75765e-05
7.75401e-05
7.74975e-05
7.74495e-05
7.73967e-05
7.73402e-05
7.72809e-05
7.72201e-05
7.71587e-05
7.70978e-05
7.70371e-05
9.08253e-05
9.0854e-05
9.08598e-05
9.08566e-05
9.08449e-05
9.0825e-05
9.07971e-05
9.07617e-05
9.07192e-05
9.06703e-05
9.06159e-05
9.05571e-05
9.0495e-05
9.0431e-05
9.03664e-05
9.03027e-05
9.02416e-05
9.01844e-05
9.01325e-05
9.00862e-05
0.000106137
0.000106139
0.000106125
0.000106103
0.000106072
0.000106034
0.000105989
0.000105938
0.000105882
0.000105821
0.000105757
0.000105692
0.000105626
0.000105562
0.000105502
0.000105447
0.000105399
0.000105358
0.000105328
0.000105308
0.000123962
0.000123938
0.000123908
0.000123871
0.000123828
0.000123779
0.000123726
0.000123669
0.000123609
0.000123548
0.000123488
0.000123429
0.000123374
0.000123324
0.000123282
0.000123248
0.000123224
0.00012321
0.000123209
0.000123221
0.00014486
0.000144818
0.000144779
0.000144737
0.000144692
0.000144644
0.000144595
0.000144545
0.000144496
0.00014445
0.000144407
0.000144369
0.000144339
0.000144316
0.000144302
0.000144298
0.000144305
0.000144322
0.000144349
0.000144388
0.000169463
0.000169416
0.00016938
0.000169344
0.000169309
0.000169274
0.000169242
0.000169213
0.000169188
0.000169169
0.000169157
0.000169152
0.000169155
0.000169166
0.000169187
0.000169215
0.000169251
0.000169293
0.00016934
0.000169393
0.000198464
0.000198426
0.000198403
0.000198384
0.000198368
0.000198357
0.000198351
0.000198352
0.00019836
0.000198375
0.000198399
0.00019843
0.000198469
0.000198514
0.000198564
0.000198618
0.000198674
0.000198728
0.00019878
0.000198826
0.000232613
0.000232594
0.00023259
0.000232593
0.000232601
0.000232617
0.000232641
0.000232672
0.000232712
0.00023276
0.000232815
0.000232877
0.000232943
0.000233011
0.000233079
0.000233144
0.000233203
0.000233253
0.000233291
0.000233315
0.000272733
0.000272736
0.000272751
0.000272774
0.000272804
0.000272842
0.000272889
0.000272943
0.000273005
0.000273073
0.000273146
0.000273221
0.000273297
0.00027337
0.000273437
0.000273495
0.00027354
0.00027357
0.000273583
0.000273575
0.000319756
0.000319777
0.000319803
0.000319838
0.000319879
0.000319928
0.000319984
0.000320046
0.000320112
0.000320182
0.000320252
0.000320321
0.000320386
0.000320443