/*--------------------------------*- C++ -*----------------------------------*\
| =========                 |                                                 |
| \\      /  F ield         | OpenFOAM: The Open Source CFD Toolbox           |
|  \\    /   O peration     | Version:  1.6                                   |
|   \\  /    A nd           | Web:      www.OpenFOAM.org                      |
|    \\/     M anipulation  |                                                 |
\*---------------------------------------------------------------------------*/
FoamFile
{
    version     2.0;
    format      ascii;
    class       volScalarField;
    location    "0.6";
    object      T;
}
// * * * * * * * * * * * * * * * * * * * * * * * * * * * * * * * * * * * * * //

dimensions      [0 0 0 0 0 0 0];

internalField   nonuniform List<scalar> 
400
(
4.9931
7.71159
8.62695
9.01594
9.21638
9.33349
9.40649
9.45249
9.47981
9.49259
9.49259
9.47981
9.45249
9.40649
9.3335
9.21638
9.01594
8.62695
7.7116
4.9931
2.24702
4.93793
6.40723
7.23636
7.73248
8.04462
8.2465
8.37617
8.45397
8.49057
8.49057
8.45398
8.37617
8.2465
8.04463
7.73248
7.23636
6.40723
4.93793
2.24702
1.30407
3.3859
4.82769
5.78984
6.43258
6.86609
7.15876
7.35178
7.46942
7.52521
7.52521
7.46943
7.35179
7.15878
6.8661
6.4326
5.78985
4.8277
3.3859
1.30407
0.887433
2.47393
3.72784
4.66279
5.34201
5.82847
6.1708
6.40289
6.54684
6.61576
6.61576
6.54684
6.4029
6.17081
5.82849
5.34203
4.6628
3.72785
2.47393
0.887433
0.659174
1.89458
2.94703
3.79154
4.44431
4.9351
5.2932
5.5423
5.69943
5.77539
5.77539
5.69943
5.54231
5.29322
4.93512
4.44434
3.79156
2.94704
1.89458
0.659177
0.513879
1.49822
2.37423
3.11214
3.70873
4.17457
4.52478
4.77386
4.93337
5.01117
5.01118
4.93338
4.77387
4.5248
4.1746
3.70875
3.11216
2.37424
1.49823
0.513882
0.412021
1.21025
1.93961
2.5742
3.10405
3.52986
3.8577
4.09519
4.24926
4.32499
4.32499
4.24927
4.0952
3.85772
3.52988
3.10407
2.57421
1.93962
1.21025
0.412024
0.336001
0.9912
1.59987
2.14112
2.60358
2.98333
3.28119
3.50017
3.64376
3.71477
3.71477
3.64376
3.50017
3.2812
2.98334
2.60359
2.14113
1.59987
0.991203
0.336002
0.276803
0.818746
1.32765
1.78699
2.18598
2.51891
2.78378
2.9808
3.11108
3.17586
3.17586
3.11108
2.98079
2.78379
2.51891
2.18598
1.78699
1.32765
0.818746
0.276804
0.229292
0.679392
1.10512
1.49337
1.83461
2.12276
2.35449
2.52841
2.6442
2.702
2.702
2.64419
2.5284
2.35449
2.12275
1.83461
1.49336
1.10511
0.67939
0.229291
0.190287
0.564481
0.920163
1.2469
1.53653
1.78324
1.98326
2.13442
2.23558
2.28624
2.28624
2.23557
2.13441
1.98325
1.78323
1.53652
1.24689
0.920154
0.564475
0.190286
0.157685
0.468145
0.764267
1.03769
1.28156
1.49062
1.66115
1.7907
1.87773
1.92143
1.92143
1.87772
1.79068
1.66114
1.4906
1.28154
1.03768
0.764254
0.468138
0.157683
0.130014
0.386212
0.631173
0.858191
1.06157
1.23674
1.38028
1.48973
1.5635
1.6006
1.6006
1.56349
1.48972
1.38026
1.23672
1.06155
0.858174
0.631157
0.386204
0.130011
0.106193
0.315577
0.516123
0.702469
0.869945
1.01469
1.1337
1.22471
1.28618
1.31715
1.31714
1.28617
1.22469
1.13367
1.01467
0.869925
0.702449
0.516105
0.315567
0.10619
0.0853924
0.253834
0.415366
0.565743
0.701205
0.818578
0.915308
0.989447
1.0396
1.0649
1.06489
1.03959
0.989429
0.915286
0.818554
0.701183
0.565722
0.415348
0.253825
0.0853886
0.0669496
0.199052
0.325845
0.44404
0.55069
0.643264
0.719691
0.77836
0.8181
0.838154
0.83815
0.81809
0.778344
0.719671
0.643242
0.550671
0.444023
0.32583
0.199045
0.0669473
0.0503166
0.14962
0.24499
0.333976
0.414364
0.484231
0.541983
0.586365
0.616454
0.631646
0.631643
0.616446
0.586352
0.541966
0.484211
0.414348
0.333962
0.244978
0.149615
0.0503152
0.0350234
0.104154
0.170574
0.232587
0.288651
0.33742
0.377767
0.408797
0.429846
0.440477
0.440475
0.429839
0.408786
0.377753
0.337405
0.288639
0.232576
0.170565
0.10415
0.0350212
0.0206536
0.0614239
0.100606
0.137203
0.170305
0.199115
0.222962
0.241311
0.253763
0.260054
0.260052
0.253759
0.241305
0.222955
0.199107
0.1703
0.137199
0.100603
0.0614238
0.0206528
0.00682522
0.0202987
0.0332488
0.0453467
0.0562918
0.0658201
0.0737091
0.0797806
0.0839015
0.0859835
0.0859829
0.0838999
0.0797783
0.0737063
0.0658168
0.05629
0.0453457
0.0332468
0.0202979
0.00682457
)
;

boundaryField
{
    left
    {
        type            fixedValue;
        value           uniform 0;
    }
    down
    {
        type            fixedValue;
        value           uniform 10;
    }
    up
    {
        type            fixedValue;
        value           uniform 0;
    }
    right
    {
        type            fixedValue;
        value           uniform 0;
    }
    frontAndBack
    {
        type            empty;
    }
}


// ************************************************************************* //
