/*--------------------------------*- C++ -*----------------------------------*\
| =========                 |                                                 |
| \\      /  F ield         | OpenFOAM: The Open Source CFD Toolbox           |
|  \\    /   O peration     | Version:  1.6                                   |
|   \\  /    A nd           | Web:      www.OpenFOAM.org                      |
|    \\/     M anipulation  |                                                 |
\*---------------------------------------------------------------------------*/
FoamFile
{
    version     2.0;
    format      ascii;
    class       volScalarField;
    location    "0.2";
    object      T;
}
// * * * * * * * * * * * * * * * * * * * * * * * * * * * * * * * * * * * * * //

dimensions      [0 0 0 0 0 0 0];

internalField   nonuniform List<scalar> 
400
(
4.98786
7.69628
8.60238
8.98309
9.17634
9.28741
9.35555
9.39789
9.42276
9.43432
9.43432
9.42276
9.39788
9.35555
9.28741
9.17634
8.98309
8.60238
7.69628
4.98785
2.23234
4.89469
6.33736
7.1425
7.61766
7.91213
8.09975
8.21869
8.28931
8.3223
8.3223
8.28931
8.21868
8.09975
7.91213
7.61766
7.1425
6.33736
4.89469
2.23234
1.28155
3.31932
4.71967
5.64416
6.25379
6.65923
6.92921
7.10508
7.21123
7.26126
7.26125
7.21122
7.10507
6.9292
6.65923
6.25379
5.64416
4.71967
3.31932
1.28155
0.858814
2.38914
3.58988
4.47617
5.11234
5.56212
5.87465
6.08417
6.21297
6.27429
6.27429
6.21297
6.08417
5.87465
5.56211
5.11233
4.47616
3.58988
2.38914
0.858812
0.62615
1.79661
2.78731
3.57499
4.17721
4.62472
4.94754
5.16981
5.3089
5.3758
5.3758
5.3089
5.1698
4.94753
4.62472
4.1772
3.57498
2.7873
1.79661
0.626148
0.478003
1.39171
2.20034
2.87598
3.41693
3.83494
4.14601
4.36525
4.50466
4.57234
4.57234
4.50465
4.36524
4.146
3.83493
3.41692
2.87597
2.20033
1.39171
0.478002
0.374671
1.0993
1.75829
2.32763
2.79897
3.17432
3.46073
3.66656
3.79927
3.86423
3.86423
3.79926
3.66655
3.46072
3.17431
2.79896
2.32762
1.75828
1.09929
0.37467
0.298356
0.879329
1.4169
1.89208
2.29512
2.62349
2.87905
3.06564
3.18733
3.24731
3.24731
3.18733
3.06564
2.87904
2.62348
2.29511
1.89207
1.4169
0.879324
0.298353
0.239848
0.708892
1.14789
1.54213
1.88246
2.16454
2.38748
2.55233
2.66084
2.71463
2.71462
2.66083
2.55232
2.38748
2.16453
1.88245
1.54213
1.14788
0.708887
0.239846
0.193829
0.573953
0.932509
1.25813
1.54285
1.7819
1.97308
2.11585
2.21053
2.25768
2.25768
2.21053
2.11585
1.97308
1.7819
1.54284
1.25813
0.932505
0.573951
0.193828
0.156959
0.465375
0.757874
1.02564
1.26196
1.46232
1.62401
1.74569
1.82685
1.86742
1.86742
1.82685
1.74569
1.62401
1.46232
1.26196
1.02563
0.757871
0.465373
0.156959
0.126994
0.376867
0.61476
0.833791
1.02845
1.19467
1.32974
1.43199
1.5005
1.53484
1.53484
1.5005
1.43199
1.32975
1.19468
1.02845
0.83379
0.614757
0.376865
0.126993
0.10234
0.303898
0.496325
0.674239
0.833159
0.969604
1.08105
1.1658
1.22278
1.2514
1.2514
1.22278
1.1658
1.08105
0.969607
0.833162
0.674241
0.496326
0.303898
0.102339
0.081818
0.243072
0.39733
0.540392
0.66866
0.77923
0.869895
0.939074
0.985712
1.00918
1.00918
0.985713
0.939075
0.869897
0.779234
0.668664
0.540397
0.397335
0.243075
0.0818188
0.0645223
0.191754
0.313643
0.426937
0.528795
0.61686
0.68928
0.744679
0.782102
0.800955
0.800955
0.782103
0.74468
0.689282
0.616863
0.528799
0.426942
0.313648
0.191757
0.0645237
0.0497298
0.147828
0.241906
0.32949
0.408389
0.476753
0.533092
0.57627
0.605481
0.620211
0.620211
0.605482
0.576271
0.533093
0.476755
0.408391
0.329492
0.241908
0.14783
0.0497307
0.0368454
0.109546
0.179318
0.244348
0.303012
0.353922
0.395941
0.428188
0.450028
0.461048
0.461048
0.450028
0.428189
0.395942
0.353923
0.303013
0.244348
0.179317
0.109546
0.0368454
0.0253641
0.0754188
0.123481
0.168312
0.208793
0.243961
0.273018
0.295338
0.310466
0.318103
0.318103
0.310466
0.295339
0.273019
0.243962
0.208794
0.168311
0.12348
0.075418
0.0253637
0.0148444
0.0441422
0.0722826
0.0985436
0.122271
0.142898
0.159952
0.17306
0.181948
0.186436
0.186436
0.181948
0.173061
0.159953
0.142899
0.122272
0.0985438
0.0722825
0.0441419
0.0148442
0.00488642
0.0145312
0.0237964
0.0324449
0.0402615
0.0470586
0.0526801
0.0570021
0.0599334
0.0614139
0.061414
0.0599337
0.0570025
0.0526806
0.0470591
0.0402619
0.0324453
0.0237967
0.0145314
0.00488651
)
;

boundaryField
{
    left
    {
        type            fixedValue;
        value           uniform 0;
    }
    down
    {
        type            fixedValue;
        value           uniform 10;
    }
    up
    {
        type            fixedValue;
        value           uniform 0;
    }
    right
    {
        type            fixedValue;
        value           uniform 0;
    }
    frontAndBack
    {
        type            empty;
    }
}


// ************************************************************************* //
