/*--------------------------------*- C++ -*----------------------------------*\
| =========                 |                                                 |
| \\      /  F ield         | OpenFOAM: The Open Source CFD Toolbox           |
|  \\    /   O peration     | Version:  2.1.0                                 |
|   \\  /    A nd           | Web:      www.OpenFOAM.org                      |
|    \\/     M anipulation  |                                                 |
\*---------------------------------------------------------------------------*/
FoamFile
{
    version     2.0;
    format      ascii;
    class       volScalarField;
    location    "4015";
    object      kr_w;
}
// * * * * * * * * * * * * * * * * * * * * * * * * * * * * * * * * * * * * * //

dimensions      [0 0 0 0 0 0 0];

internalField   nonuniform List<scalar> 
15000
(
0.559861
0.533519
0.483152
0.43068
0.384523
0.345342
0.312115
0.283712
0.259185
0.237764
0.218851
0.202022
0.186967
0.173437
0.161225
0.150152
0.140066
0.130833
0.122339
0.114481
0.107166
0.100312
0.0938446
0.0876907
0.0817799
0.0760407
0.0703968
0.0647622
0.0590361
0.0530852
0.0467152
0.0396483
0.0315327
0.0221687
0.0124234
0.00503207
0.00152565
0.000392401
9.32804e-05
2.1165e-05
4.62621e-06
9.76559e-07
1.99218e-07
3.9279e-08
7.48436e-09
1.37793e-09
2.4507e-10
4.20986e-11
6.98415e-12
1.11906e-12
1.73262e-13
2.59697e-14
3.78797e-15
5.33427e-16
3.49268e-17
0
0
0
0
0
0
0
0
0
0
0
0
0
0
0
0
0
0
0
0
0
0
0
0
0
0
0
0
0
0
0
0
0
0
0
0
0
0
0
0
0
0
0
0
0
0
0
0
0
0
0
0
0
0
0
0
0
0
0
0
0
0
0
0
0
0
0
0
0
0
0
0
0
0
0
0
0
0
0
0
0
0
0
0
0
0
0
0
0
0
0
0
0
0
0
0.533594
0.493848
0.447414
0.403147
0.363753
0.329421
0.299606
0.273633
0.250862
0.230724
0.212775
0.196694
0.182233
0.169182
0.157359
0.146604
0.13678
0.127766
0.11945
0.111738
0.104543
0.0977843
0.0913892
0.0852862
0.079405
0.0736734
0.0680129
0.0623348
0.0565329
0.0504587
0.0438984
0.0365562
0.0281046
0.0185717
0.00944235
0.00347016
0.000996904
0.000251633
5.94958e-05
1.34725e-05
2.94065e-06
6.19822e-07
1.26222e-07
2.48349e-08
4.72054e-09
8.66626e-10
1.53633e-10
2.62947e-11
4.34449e-12
6.92992e-13
1.06778e-13
1.59266e-14
2.30834e-15
3.17516e-16
3.17516e-18
0
0
0
0
0
0
0
0
0
0
0
0
0
0
0
0
0
0
0
0
0
0
0
0
0
0
0
0
0
0
0
0
0
0
0
0
0
0
0
0
0
0
0
0
0
0
0
0
0
0
0
0
0
0
0
0
0
0
0
0
0
0
0
0
0
0
0
0
0
0
0
0
0
0
0
0
0
0
0
0
0
0
0
0
0
0
0
0
0
0
0
0
0
0
0
0.483482
0.447637
0.409834
0.373813
0.340924
0.311442
0.285199
0.261861
0.24104
0.222361
0.205536
0.190343
0.176596
0.164125
0.152775
0.142411
0.132912
0.124167
0.116077
0.108552
0.101513
0.0948819
0.088588
0.0825616
0.0767327
0.0710273
0.0653648
0.0596529
0.0537737
0.0475581
0.0407663
0.0330828
0.0242451
0.0146872
0.0066059
0.00219009
0.000597609
0.000148024
3.47492e-05
7.83819e-06
1.70556e-06
3.58415e-07
7.27587e-08
1.42668e-08
2.70158e-09
4.93896e-10
8.71488e-11
1.48388e-11
2.43782e-12
3.86475e-13
5.91755e-14
8.76345e-15
1.26372e-15
1.68284e-16
3.17516e-18
0
0
0
0
0
0
0
0
0
0
0
0
0
0
0
0
0
0
0
0
0
0
0
0
0
0
0
0
0
0
0
0
0
0
0
0
0
0
0
0
0
0
0
0
0
0
0
0
0
0
0
0
0
0
0
0
0
0
0
0
0
0
0
0
0
0
0
0
0
0
0
0
0
0
0
0
0
0
0
0
0
0
0
0
0
0
0
0
0
0
0
0
0
0
0
0.431395
0.403699
0.37412
0.345147
0.317895
0.29279
0.269904
0.249126
0.23025
0.213075
0.197442
0.183211
0.170244
0.158413
0.147591
0.137667
0.128535
0.120097
0.112266
0.104959
0.0981004
0.0916188
0.0854452
0.0795109
0.0737459
0.068074
0.0624115
0.0566585
0.0506781
0.0442748
0.0371752
0.029057
0.0198393
0.010652
0.00416026
0.00125316
0.0003276
7.97993e-05
1.85866e-05
4.17104e-06
9.03731e-07
1.89149e-07
3.82406e-08
7.46606e-09
1.40719e-09
2.55945e-10
4.49073e-11
7.59878e-12
1.23986e-12
1.95104e-13
2.96783e-14
4.39443e-15
6.38208e-16
6.35033e-17
0
0
0
0
0
0
0
0
0
0
0
0
0
0
0
0
0
0
0
0
0
0
0
0
0
0
0
0
0
0
0
0
0
0
0
0
0
0
0
0
0
0
0
0
0
0
0
0
0
0
0
0
0
0
0
0
0
0
0
0
0
0
0
0
0
0
0
0
0
0
0
0
0
0
0
0
0
0
0
0
0
0
0
0
0
0
0
0
0
0
0
0
0
0
0
0
0.385688
0.364703
0.341602
0.318254
0.295655
0.2743
0.254392
0.235947
0.218904
0.203198
0.188759
0.175506
0.163345
0.152181
0.141916
0.132458
0.123716
0.115609
0.108056
0.100984
0.0943215
0.0880015
0.0819574
0.0761207
0.07042
0.0647765
0.0591012
0.0532796
0.0471482
0.0404751
0.0329533
0.0243147
0.014924
0.00684671
0.00231907
0.000646259
0.000163605
3.93077e-05
9.08527e-06
2.02745e-06
4.37187e-07
9.10916e-08
1.83334e-08
3.56256e-09
6.68058e-10
1.20831e-10
2.10693e-11
3.54063e-12
5.73314e-13
8.94825e-14
1.34817e-14
1.9686e-15
2.69889e-16
3.17516e-18
0
0
0
0
0
0
0
0
0
0
0
0
0
0
0
0
0
0
0
0
0
0
0
0
0
0
0
0
0
0
0
0
0
0
0
0
0
0
0
0
0
0
0
0
0
0
0
0
0
0
0
0
0
0
0
0
0
0
0
0
0
0
0
0
0
0
0
0
0
0
0
0
0
0
0
0
0
0
0
0
0
0
0
0
0
0
0
0
0
0
0
0
0
0
0
0
0.346992
0.330817
0.312537
0.293543
0.274682
0.256444
0.239077
0.222685
0.207318
0.192996
0.179706
0.167408
0.156045
0.145549
0.135846
0.12686
0.118518
0.110749
0.103482
0.0966487
0.0901857
0.0840283
0.0781109
0.0723648
0.0667157
0.0610812
0.0553618
0.0494173
0.0430487
0.0359807
0.0278991
0.018776
0.00986579
0.003783
0.00113523
0.000299508
7.4164e-05
1.76285e-05
4.04673e-06
8.9829e-07
1.92813e-07
4.00006e-08
8.01572e-09
1.55049e-09
2.89296e-10
5.20322e-11
9.01577e-12
1.50433e-12
2.41687e-13
3.74098e-14
5.60416e-15
8.09667e-16
9.84301e-17
0
0
0
0
0
0
0
0
0
0
0
0
0
0
0
0
0
0
0
0
0
0
0
0
0
0
0
0
0
0
0
0
0
0
0
0
0
0
0
0
0
0
0
0
0
0
0
0
0
0
0
0
0
0
0
0
0
0
0
0
0
0
0
0
0
0
0
0
0
0
0
0
0
0
0
0
0
0
0
0
0
0
0
0
0
0
0
0
0
0
0
0
0
0
0
0
0
0.314275
0.301484
0.286741
0.271069
0.255159
0.239449
0.224203
0.209591
0.195727
0.182675
0.170458
0.159065
0.148467
0.138616
0.129459
0.120937
0.112988
0.105551
0.0985629
0.0919629
0.0856911
0.0796843
0.0738772
0.0681998
0.0625745
0.0569113
0.0510867
0.044926
0.0381843
0.0305517
0.0218326
0.0126881
0.00545211
0.00177071
0.000488319
0.000124582
3.04137e-05
7.17301e-06
1.63772e-06
3.61979e-07
7.74059e-08
1.60016e-08
3.19498e-09
6.15585e-10
1.14349e-10
2.04614e-11
3.52428e-12
5.84005e-13
9.31212e-14
1.43295e-14
2.15276e-15
3.07991e-16
3.17516e-18
0
0
0
0
0
0
0
0
0
0
0
0
0
0
0
0
0
0
0
0
0
0
0
0
0
0
0
0
0
0
0
0
0
0
0
0
0
0
0
0
0
0
0
0
0
0
0
0
0
0
0
0
0
0
0
0
0
0
0
0
0
0
0
0
0
0
0
0
0
0
0
0
0
0
0
0
0
0
0
0
0
0
0
0
0
0
0
0
0
0
0
0
0
0
0
0
0
0.286406
0.276014
0.263862
0.250706
0.237092
0.223405
0.209921
0.196841
0.184303
0.172391
0.161149
0.150591
0.140705
0.131462
0.122821
0.114738
0.107162
0.100037
0.0933099
0.0869229
0.0808183
0.074934
0.0692041
0.0635555
0.0579044
0.0521401
0.0461054
0.0395788
0.0322695
0.0239235
0.0148671
0.0069897
0.00244546
0.000705584
0.000185479
4.64708e-05
1.12505e-05
2.64021e-06
6.00689e-07
1.32407e-07
2.82487e-08
5.82689e-09
1.16071e-09
2.23023e-10
4.12888e-11
7.35726e-12
1.26073e-12
2.07621e-13
3.28915e-14
5.02946e-15
7.42988e-16
9.84301e-17
0
0
0
0
0
0
0
0
0
0
0
0
0
0
0
0
0
0
0
0
0
0
0
0
0
0
0
0
0
0
0
0
0
0
0
0
0
0
0
0
0
0
0
0
0
0
0
0
0
0
0
0
0
0
0
0
0
0
0
0
0
0
0
0
0
0
0
0
0
0
0
0
0
0
0
0
0
0
0
0
0
0
0
0
0
0
0
0
0
0
0
0
0
0
0
0
0
0
0.262436
0.253764
0.243512
0.232246
0.220409
0.208347
0.196327
0.18455
0.173158
0.162249
0.151878
0.142071
0.132832
0.124143
0.115977
0.108296
0.101058
0.0942134
0.0877129
0.0815015
0.0755221
0.0697125
0.0640036
0.0583173
0.0525517
0.0465619
0.0401445
0.0330299
0.0249578
0.0161078
0.00803376
0.00298229
0.000897466
0.000243087
6.25112e-05
1.55321e-05
3.74531e-06
8.76937e-07
1.99257e-07
4.3891e-08
9.36076e-09
1.93026e-09
3.84293e-10
7.37623e-11
1.36314e-11
2.42237e-12
4.13495e-13
6.77866e-14
1.06844e-14
1.63838e-15
2.34962e-16
3.17516e-18
0
0
0
0
0
0
0
0
0
0
0
0
0
0
0
0
0
0
0
0
0
0
0
0
0
0
0
0
0
0
0
0
0
0
0
0
0
0
0
0
0
0
0
0
0
0
0
0
0
0
0
0
0
0
0
0
0
0
0
0
0
0
0
0
0
0
0
0
0
0
0
0
0
0
0
0
0
0
0
0
0
0
0
0
0
0
0
0
0
0
0
0
0
0
0
0
0
0
0.241607
0.234173
0.225318
0.215483
0.205036
0.194282
0.183466
0.17278
0.162364
0.152317
0.142705
0.133561
0.124894
0.116698
0.108951
0.101624
0.0946754
0.0880626
0.0817361
0.075642
0.0697215
0.0639091
0.0581314
0.052292
0.0462549
0.0398306
0.0327712
0.0248441
0.0162191
0.00830117
0.00319615
0.000996051
0.000277986
7.34679e-05
1.87513e-05
4.64731e-06
1.11974e-06
2.62244e-07
5.96509e-08
1.31621e-08
2.81292e-09
5.81263e-10
1.15931e-10
2.2279e-11
4.11869e-12
7.31393e-13
1.24628e-13
2.04036e-14
3.23232e-15
4.88975e-16
3.49268e-17
0
0
0
0
0
0
0
0
0
0
0
0
0
0
0
0
0
0
0
0
0
0
0
0
0
0
0
0
0
0
0
0
0
0
0
0
0
0
0
0
0
0
0
0
0
0
0
0
0
0
0
0
0
0
0
0
0
0
0
0
0
0
0
0
0
0
0
0
0
0
0
0
0
0
0
0
0
0
0
0
0
0
0
0
0
0
0
0
0
0
0
0
0
0
0
0
0
0
0
0.223325
0.216801
0.208991
0.200251
0.190892
0.181182
0.171344
0.161555
0.151952
0.142634
0.133667
0.12509
0.116914
0.109139
0.101747
0.0947089
0.0879865
0.0815363
0.0753064
0.0692402
0.0632743
0.0573379
0.0513363
0.0451375
0.0385636
0.0313946
0.0234665
0.015074
0.00764882
0.00297788
0.000952984
0.000274346
7.47584e-05
1.9649e-05
5.01112e-06
1.24259e-06
2.99814e-07
7.03886e-08
1.60681e-08
3.56146e-09
7.65004e-10
1.58898e-10
3.18447e-11
6.14494e-12
1.13959e-12
2.02795e-13
3.46252e-14
5.68354e-15
9.14447e-16
1.36532e-16
3.17516e-18
0
0
0
0
0
0
0
0
0
0
0
0
0
0
0
0
0
0
0
0
0
0
0
0
0
0
0
0
0
0
0
0
0
0
0
0
0
0
0
0
0
0
0
0
0
0
0
0
0
0
0
0
0
0
0
0
0
0
0
0
0
0
0
0
0
0
0
0
0
0
0
0
0
0
0
0
0
0
0
0
0
0
0
0
0
0
0
0
0
0
0
0
0
0
0
0
0
0
0
0.207173
0.201329
0.194308
0.186406
0.177889
0.168998
0.159935
0.150868
0.141926
0.133205
0.124771
0.116661
0.10889
0.101456
0.0943392
0.0875097
0.0809262
0.0745392
0.0682905
0.0621165
0.0559434
0.0496722
0.0431693
0.036266
0.0287895
0.0207229
0.0126608
0.00614517
0.00236493
0.00077269
0.000230324
6.51114e-05
1.77129e-05
4.66177e-06
1.19042e-06
2.95623e-07
7.15147e-08
1.6864e-08
3.87427e-09
8.65639e-10
1.8762e-10
3.93302e-11
7.95132e-12
1.5465e-12
2.888e-13
5.17171e-14
8.90316e-15
1.47645e-15
2.31787e-16
3.17516e-18
0
0
0
0
0
0
0
0
0
0
0
0
0
0
0
0
0
0
0
0
0
0
0
0
0
0
0
0
0
0
0
0
0
0
0
0
0
0
0
0
0
0
0
0
0
0
0
0
0
0
0
0
0
0
0
0
0
0
0
0
0
0
0
0
0
0
0
0
0
0
0
0
0
0
0
0
0
0
0
0
0
0
0
0
0
0
0
0
0
0
0
0
0
0
0
0
0
0
0
0
0.192848
0.187515
0.181084
0.17381
0.16593
0.157663
0.149196
0.140688
0.132262
0.12401
0.115994
0.10825
0.100789
0.0936023
0.0866646
0.0799381
0.0733714
0.0669027
0.0604623
0.0539671
0.0473033
0.040328
0.0328867
0.0249045
0.0166732
0.00927874
0.00416218
0.00155728
0.000518218
0.000160951
4.7661e-05
1.35447e-05
3.70317e-06
9.76717e-07
2.49502e-07
6.20039e-08
1.50448e-08
3.57069e-09
8.286e-10
1.8755e-10
4.12471e-11
8.77544e-12
1.7992e-12
3.54485e-13
6.70182e-14
1.21577e-14
2.11783e-15
3.49268e-16
2.22261e-17
0
0
0
0
0
0
0
0
0
0
0
0
0
0
0
0
0
0
0
0
0
0
0
0
0
0
0
0
0
0
0
0
0
0
0
0
0
0
0
0
0
0
0
0
0
0
0
0
0
0
0
0
0
0
0
0
0
0
0
0
0
0
0
0
0
0
0
0
0
0
0
0
0
0
0
0
0
0
0
0
0
0
0
0
0
0
0
0
0
0
0
0
0
0
0
0
0
0
0
0
0
0.180114
0.175158
0.169157
0.162337
0.154916
0.147098
0.139061
0.130959
0.122909
0.115
0.107289
0.0998022
0.0925435
0.0854911
0.0786067
0.0718359
0.0651083
0.0583428
0.0514357
0.0442488
0.0366256
0.0284555
0.0198982
0.0118178
0.00572295
0.00230748
0.000825412
0.000277387
8.99683e-05
2.8245e-05
8.52157e-06
2.45702e-06
6.76351e-07
1.78427e-07
4.54437e-08
1.12717e-08
2.74247e-09
6.56864e-10
1.54823e-10
3.57742e-11
8.05236e-12
1.75312e-12
3.67217e-13
7.3813e-14
1.42374e-14
2.65761e-15
4.69924e-16
5.08026e-17
0
0
0
0
0
0
0
0
0
0
0
0
0
0
0
0
0
0
0
0
0
0
0
0
0
0
0
0
0
0
0
0
0
0
0
0
0
0
0
0
0
0
0
0
0
0
0
0
0
0
0
0
0
0
0
0
0
0
0
0
0
0
0
0
0
0
0
0
0
0
0
0
0
0
0
0
0
0
0
0
0
0
0
0
0
0
0
0
0
0
0
0
0
0
0
0
0
0
0
0
0
0
0.168778
0.16409
0.158382
0.151865
0.144742
0.13721
0.129446
0.1216
0.113789
0.106096
0.0985679
0.0912178
0.0840309
0.076966
0.0699606
0.0629325
0.055782
0.0483744
0.0405409
0.0321275
0.0231718
0.0143427
0.00720668
0.00294583
0.00104274
0.000344258
0.00011215
3.71362e-05
1.24149e-05
4.08645e-06
1.2848e-06
3.80307e-07
1.05713e-07
2.77928e-08
7.0097e-09
1.72522e-09
4.20313e-10
1.02003e-10
2.4643e-11
5.88889e-12
1.37638e-12
3.1062e-13
6.71801e-14
1.39009e-14
2.78779e-15
5.46128e-16
8.25543e-17
0
0
0
0
0
0
0
0
0
0
0
0
0
0
0
0
0
0
0
0
0
0
0
0
0
0
0
0
0
0
0
0
0
0
0
0
0
0
0
0
0
0
0
0
0
0
0
0
0
0
0
0
0
0
0
0
0
0
0
0
0
0
0
0
0
0
0
0
0
0
0
0
0
0
0
0
0
0
0
0
0
0
0
0
0
0
0
0
0
0
0
0
0
0
0
0
0
0
0
0
0
0
0
0.15868
0.154167
0.148635
0.142279
0.135301
0.127896
0.120245
0.112505
0.10479
0.0971754
0.0896922
0.0823308
0.0750457
0.0677641
0.0603871
0.0527882
0.0447962
0.0362224
0.0269857
0.0175006
0.00921248
0.00382588
0.00130931
0.000394087
0.000110847
3.10117e-05
9.22491e-06
3.15067e-06
1.17467e-06
4.42172e-07
1.53555e-07
4.81898e-08
1.36726e-08
3.56422e-09
8.77983e-10
2.11614e-10
5.14434e-11
1.2738e-11
3.20677e-12
8.11861e-13
2.02382e-13
4.83831e-14
1.09924e-14
2.39407e-15
4.98501e-16
8.25543e-17
0
0
0
0
0
0
0
0
0
0
0
0
0
0
0
0
0
0
0
0
0
0
0
0
0
0
0
0
0
0
0
0
0
0
0
0
0
0
0
0
0
0
0
0
0
0
0
0
0
0
0
0
0
0
0
0
0
0
0
0
0
0
0
0
0
0
0
0
0
0
0
0
0
0
0
0
0
0
0
0
0
0
0
0
0
0
0
0
0
0
0
0
0
0
0
0
0
0
0
0
0
0
0
0
0.14965
0.14522
0.139753
0.133445
0.126503
0.119125
0.111369
0.103524
0.0957438
0.0880486
0.0804392
0.072869
0.0652479
0.0574583
0.0493405
0.040693
0.0313526
0.0214744
0.0121442
0.00534326
0.00184989
0.000531918
0.000131668
3.06707e-05
7.31321e-06
1.81708e-06
4.70033e-07
1.61695e-07
7.59249e-08
3.84475e-08
1.57575e-08
5.3773e-09
1.54969e-09
3.89366e-10
8.9611e-11
2.02094e-11
4.81502e-12
1.22063e-12
3.27499e-13
9.14701e-14
2.5541e-14
6.69324e-15
1.64156e-15
3.74669e-16
6.35033e-17
0
0
0
0
0
0
0
0
0
0
0
0
0
0
0
0
0
0
0
0
0
0
0
0
0
0
0
0
0
0
0
0
0
0
0
0
0
0
0
0
0
0
0
0
0
0
0
0
0
0
0
0
0
0
0
0
0
0
0
0
0
0
0
0
0
0
0
0
0
0
0
0
0
0
0
0
0
0
0
0
0
0
0
0
0
0
0
0
0
0
0
0
0
0
0
0
0
0
0
0
0
0
0
0
0
0.141556
0.137105
0.131576
0.125166
0.118091
0.110557
0.102676
0.094742
0.086697
0.0784143
0.0704417
0.0623848
0.0540948
0.045378
0.0360328
0.0260278
0.0160024
0.00775626
0.00288791
0.000856167
0.000209764
4.2945e-05
8.93358e-06
1.91361e-06
4.18832e-07
9.86354e-08
2.25245e-08
7.1252e-09
4.02233e-09
3.44148e-09
1.63882e-09
6.04435e-10
1.71161e-10
3.89187e-11
7.50043e-12
1.39217e-12
3.11566e-13
8.11223e-14
2.41249e-14
8.07762e-15
2.82272e-15
8.69995e-16
2.31787e-16
9.52549e-18
0
0
0
0
0
0
0
0
0
0
0
0
0
0
0
0
0
0
0
0
0
0
0
0
0
0
0
0
0
0
0
0
0
0
0
0
0
0
0
0
0
0
0
0
0
0
0
0
0
0
0
0
0
0
0
0
0
0
0
0
0
0
0
0
0
0
0
0
0
0
0
0
0
0
0
0
0
0
0
0
0
0
0
0
0
0
0
0
0
0
0
0
0
0
0
0
0
0
0
0
0
0
0
0
0
0
0.134294
0.129722
0.123994
0.117312
0.109905
0.102002
0.0937964
0.085522
0.0770798
0.0684849
0.059207
0.0501866
0.0407854
0.030771
0.0204257
0.0110522
0.00460852
0.0014944
0.000391278
8.40087e-05
1.46234e-05
2.57901e-06
4.70429e-07
9.14336e-08
1.69643e-08
4.13983e-09
7.73977e-10
2.64327e-11
5.80436e-11
5.14279e-10
1.96157e-10
7.79378e-11
2.03865e-11
3.79706e-12
5.71771e-13
9.03207e-14
1.99877e-14
4.85482e-15
1.4574e-15
5.93756e-16
3.17516e-16
9.84301e-17
3.17516e-18
0
0
0
0
0
0
0
0
0
0
0
0
0
0
0
0
0
0
0
0
0
0
0
0
0
0
0
0
0
0
0
0
0
0
0
0
0
0
0
0
0
0
0
0
0
0
0
0
0
0
0
0
0
0
0
0
0
0
0
0
0
0
0
0
0
0
0
0
0
0
0
0
0
0
0
0
0
0
0
0
0
0
0
0
0
0
0
0
0
0
0
0
0
0
0
0
0
0
0
0
0
0
0
0
0
0
0
0.127772
0.122974
0.116893
0.109721
0.101713
0.093154
0.0843126
0.0753684
0.0662283
0.0568475
0.0466973
0.0354581
0.0249031
0.0148617
0.00702392
0.00257252
0.00074886
0.000177685
3.41367e-05
4.92859e-06
7.13657e-07
1.04277e-07
1.58629e-08
3.10698e-09
4.46418e-10
3.36043e-12
6.85835e-15
5.49938e-15
4.66146e-14
5.94673e-13
3.48411e-12
9.19911e-12
2.22184e-12
3.00116e-13
3.11611e-14
3.53078e-15
3.17516e-18
0
0
0
3.17516e-18
0
0
0
0
0
0
0
0
0
0
0
0
0
0
0
0
0
0
0
0
0
0
0
0
0
0
0
0
0
0
0
0
0
0
0
0
0
0
0
0
0
0
0
0
0
0
0
0
0
0
0
0
0
0
0
0
0
0
0
0
0
0
0
0
0
0
0
0
0
0
0
0
0
0
0
0
0
0
0
0
0
0
0
0
0
0
0
0
0
0
0
0
0
0
0
0
0
0
0
0
0
0
0
0
0
0
0
0
0
0.121905
0.116771
0.110142
0.102173
0.0931482
0.0834679
0.0735182
0.0634693
0.0532487
0.0427079
0.0313976
0.019296
0.00981551
0.00408257
0.00134903
0.000361868
7.93873e-05
1.38787e-05
1.77532e-06
2.02154e-07
2.4118e-08
2.68636e-09
3.26208e-10
3.92514e-12
8.57612e-15
7.27112e-16
0
0
0
2.22261e-17
8.41418e-16
9.13431e-14
1.48817e-13
1.47232e-14
6.8901e-16
0
0
0
0
0
0
0
0
0
0
0
0
0
0
0
0
0
0
0
0
0
0
0
0
0
0
0
0
0
0
0
0
0
0
0
0
0
0
0
0
0
0
0
0
0
0
0
0
0
0
0
0
0
0
0
0
0
0
0
0
0
0
0
0
0
0
0
0
0
0
0
0
0
0
0
0
0
0
0
0
0
0
0
0
0
0
0
0
0
0
0
0
0
0
0
0
0
0
0
0
0
0
0
0
0
0
0
0
0
0
0
0
0
0
0
0.11662
0.111034
0.103596
0.0943436
0.0836035
0.0720414
0.0603908
0.048912
0.0375659
0.0262778
0.0152228
0.00646688
0.00221403
0.000655551
0.000165239
3.41675e-05
5.55464e-06
6.42403e-07
5.24184e-08
4.64441e-09
5.08369e-10
4.02199e-11
9.35689e-14
1.30182e-15
0
0
0
0
0
0
0
8.25543e-17
8.06492e-16
5.23902e-16
0
0
0
0
0
0
0
0
0
0
0
0
0
0
0
0
0
0
0
0
0
0
0
0
0
0
0
0
0
0
0
0
0
0
0
0
0
0
0
0
0
0
0
0
0
0
0
0
0
0
0
0
0
0
0
0
0
0
0
0
0
0
0
0
0
0
0
0
0
0
0
0
0
0
0
0
0
0
0
0
0
0
0
0
0
0
0
0
0
0
0
0
0
0
0
0
0
0
0
0
0
0
0
0
0
0
0
0
0
0
0
0
0
0
0
0
0.111856
0.105722
0.0971334
0.0858284
0.0722257
0.0577615
0.0442054
0.0318559
0.0207483
0.0111772
0.00439218
0.00127741
0.000322832
7.09018e-05
1.362e-05
2.1212e-06
2.33152e-07
1.31476e-08
7.05063e-10
4.23382e-11
3.6762e-13
1.67903e-14
3.17516e-18
0
0
0
0
0
0
0
0
0
0
0
0
0
0
0
0
0
0
0
0
0
0
0
0
0
0
0
0
0
0
0
0
0
0
0
0
0
0
0
0
0
0
0
0
0
0
0
0
0
0
0
0
0
0
0
0
0
0
0
0
0
0
0
0
0
0
0
0
0
0
0
0
0
0
0
0
0
0
0
0
0
0
0
0
0
0
0
0
0
0
0
0
0
0
0
0
0
0
0
0
0
0
0
0
0
0
0
0
0
0
0
0
0
0
0
0
0
0
0
0
0
0
0
0
0
0
0
0.107579
0.10089
0.0908487
0.0765163
0.0585295
0.0403249
0.0260818
0.0152063
0.00741723
0.00272195
0.000739461
0.000162473
3.20343e-05
5.35471e-06
7.36289e-07
7.97024e-08
5.00363e-09
1.41989e-10
4.50743e-12
1.82858e-14
1.68284e-16
0
0
0
0
0
0
0
0
0
0
0
0
0
0
0
0
0
0
0
0
0
0
0
0
0
0
0
0
0
0
0
0
0
0
0
0
0
0
0
0
0
0
0
0
0
0
0
0
0
0
0
0
0
0
0
0
0
0
0
0
0
0
0
0
0
0
0
0
0
0
0
0
0
0
0
0
0
0
0
0
0
0
0
0
0
0
0
0
0
0
0
0
0
0
0
0
0
0
0
0
0
0
0
0
0
0
0
0
0
0
0
0
0
0
0
0
0
0
0
0
0
0
0
0
0
0
0
0
0
0.103774
0.0967696
0.0855329
0.0679292
0.0443609
0.021823
0.00962519
0.00303238
0.00123595
0.000335937
7.13725e-05
1.27043e-05
2.03879e-06
2.5818e-07
2.49728e-08
1.59802e-09
4.07504e-11
4.7938e-13
2.89575e-15
0
0
0
0
0
0
0
0
0
0
0
0
0
0
0
0
0
0
0
0
0
0
0
0
0
0
0
0
0
0
0
0
0
0
0
0
0
0
0
0
0
0
0
0
0
0
0
0
0
0
0
0
0
0
0
0
0
0
0
0
0
0
0
0
0
0
0
0
0
0
0
0
0
0
0
0
0
0
0
0
0
0
0
0
0
0
0
0
0
0
0
0
0
0
0
0
0
0
0
0
0
0
0
0
0
0
0
0
0
0
0
0
0
0
0
0
0
0
0
0
0
0
0
0
0
0
0
0
0
0
0
0.100396
0.0935883
0.0825747
0.065184
0.0421942
0.0207403
0.000733869
1.44106e-06
6.56084e-06
1.36483e-05
2.92755e-06
4.41741e-07
7.28521e-08
6.51682e-09
4.24123e-10
1.52403e-11
6.45606e-14
4.44523e-16
0
0
0
0
0
0
0
0
0
0
0
0
0
0
0
0
0
0
0
0
0
0
0
0
0
0
0
0
0
0
0
0
0
0
0
0
0
0
0
0
0
0
0
0
0
0
0
0
0
0
0
0
0
0
0
0
0
0
0
0
0
0
0
0
0
0
0
0
0
0
0
0
0
0
0
0
0
0
0
0
0
0
0
0
0
0
0
0
0
0
0
0
0
0
0
0
0
0
0
0
0
0
0
0
0
0
0
0
0
0
0
0
0
0
0
0
0
0
0
0
0
0
0
0
0
0
0
0
0
0
0
0
0.0971632
0.0907483
0.0804731
0.0643728
0.0433069
0.023694
0.0204034
6.97975e-09
1.53722e-08
1.26372e-15
2.83695e-13
3.6045e-11
1.732e-09
2.49212e-11
9.45846e-13
1.39358e-14
3.17516e-18
0
0
0
0
0
0
0
0
0
0
0
0
0
0
0
0
0
0
0
0
0
0
0
0
0
0
0
0
0
0
0
0
0
0
0
0
0
0
0
0
0
0
0
0
0
0
0
0
0
0
0
0
0
0
0
0
0
0
0
0
0
0
0
0
0
0
0
0
0
0
0
0
0
0
0
0
0
0
0
0
0
0
0
0
0
0
0
0
0
0
0
0
0
0
0
0
0
0
0
0
0
0
0
0
0
0
0
0
0
0
0
0
0
0
0
0
0
0
0
0
0
0
0
0
0
0
0
0
0
0
0
0
0
0.0939647
0.0880258
0.0786725
0.06423
0.0455418
0.0280316
0.0224727
0.0201433
4.38836e-11
0
6.00106e-16
7.6912e-14
3.74438e-12
4.87927e-14
1.90192e-15
0
0
0
0
0
0
0
0
0
0
0
0
0
0
0
0
0
0
0
0
0
0
0
0
0
0
0
0
0
0
0
0
0
0
0
0
0
0
0
0
0
0
0
0
0
0
0
0
0
0
0
0
0
0
0
0
0
0
0
0
0
0
0
0
0
0
0
0
0
0
0
0
0
0
0
0
0
0
0
0
0
0
0
0
0
0
0
0
0
0
0
0
0
0
0
0
0
0
0
0
0
0
0
0
0
0
0
0
0
0
0
0
0
0
0
0
0
0
0
0
0
0
0
0
0
0
0
0
0
0
0
0
0
0
0
0.0907263
0.085289
0.0769021
0.0641828
0.0478742
0.032286
0.0249871
0.0211094
0.0181736
1.86693e-05
0
6.35033e-17
7.48069e-15
3.17516e-18
0
0
0
0
0
0
0
0
0
0
0
0
0
0
0
0
0
0
0
0
0
0
0
0
0
0
0
0
0
0
0
0
0
0
0
0
0
0
0
0
0
0
0
0
0
0
0
0
0
0
0
0
0
0
0
0
0
0
0
0
0
0
0
0
0
0
0
0
0
0
0
0
0
0
0
0
0
0
0
0
0
0
0
0
0
0
0
0
0
0
0
0
0
0
0
0
0
0
0
0
0
0
0
0
0
0
0
0
0
0
0
0
0
0
0
0
0
0
0
0
0
0
0
0
0
0
0
0
0
0
0
0
0
0
0
0
0.0873927
0.0824433
0.0749837
0.0638899
0.0497618
0.0358866
0.0275957
0.0225088
0.018698
0.0148474
0.000641481
1.52997e-06
1.60911e-10
0
0
0
0
0
0
0
0
0
0
0
0
0
0
0
0
0
0
0
0
0
0
0
0
0
0
0
0
0
0
0
0
0
0
0
0
0
0
0
0
0
0
0
0
0
0
0
0
0
0
0
0
0
0
0
0
0
0
0
0
0
0
0
0
0
0
0
0
0
0
0
0
0
0
0
0
0
0
0
0
0
0
0
0
0
0
0
0
0
0
0
0
0
0
0
0
0
0
0
0
0
0
0
0
0
0
0
0
0
0
0
0
0
0
0
0
0
0
0
0
0
0
0
0
0
0
0
0
0
0
0
0
0
0
0
0
0
0.0839205
0.0794246
0.0728089
0.0631686
0.050959
0.0386303
0.0299729
0.0240444
0.0194715
0.0151928
0.0109518
0.00527669
0.00122228
1.65945e-05
3.9703e-08
1.30484e-11
0
0
0
0
0
0
0
0
0
0
0
0
0
0
0
0
0
0
0
0
0
0
0
0
0
0
0
0
0
0
0
0
0
0
0
0
0
0
0
0
0
0
0
0
0
0
0
0
0
0
0
0
0
0
0
0
0
0
0
0
0
0
0
0
0
0
0
0
0
0
0
0
0
0
0
0
0
0
0
0
0
0
0
0
0
0
0
0
0
0
0
0
0
0
0
0
0
0
0
0
0
0
0
0
0
0
0
0
0
0
0
0
0
0
0
0
0
0
0
0
0
0
0
0
0
0
0
0
0
0
0
0
0
0
0.0802758
0.0761855
0.0703084
0.061925
0.0513638
0.0404264
0.0318249
0.0253588
0.020065
0.0149783
0.00948828
0.0039445
0.000968984
0.000159346
1.08048e-10
1.69681e-14
0
0
0
0
0
0
0
0
0
0
0
0
0
0
0
0
0
0
0
0
0
0
0
0
0
0
0
0
0
0
0
0
0
0
0
0
0
0
0
0
0
0
0
0
0
0
0
0
0
0
0
0
0
0
0
0
0
0
0
0
0
0
0
0
0
0
0
0
0
0
0
0
0
0
0
0
0
0
0
0
0
0
0
0
0
0
0
0
0
0
0
0
0
0
0
0
0
0
0
0
0
0
0
0
0
0
0
0
0
0
0
0
0
0
0
0
0
0
0
0
0
0
0
0
0
0
0
0
0
0
0
0
0
0
0.0764253
0.0726859
0.0674342
0.0601051
0.0509256
0.0412048
0.0328705
0.0260125
0.019869
0.0135558
0.0071221
0.00247422
0.000577016
8.98363e-05
1.74579e-07
2.61868e-11
2.38137e-15
0
0
0
0
0
0
0
0
0
0
0
0
0
0
0
0
0
0
0
0
0
0
0
0
0
0
0
0
0
0
0
0
0
0
0
0
0
0
0
0
0
0
0
0
0
0
0
0
0
0
0
0
0
0
0
0
0
0
0
0
0
0
0
0
0
0
0
0
0
0
0
0
0
0
0
0
0
0
0
0
0
0
0
0
0
0
0
0
0
0
0
0
0
0
0
0
0
0
0
0
0
0
0
0
0
0
0
0
0
0
0
0
0
0
0
0
0
0
0
0
0
0
0
0
0
0
0
0
0
0
0
0
0
0.0723283
0.0688783
0.0641348
0.057656
0.0495877
0.0408571
0.0327804
0.0254345
0.0181353
0.0105798
0.00440358
0.00129864
0.000303938
6.11185e-05
1.24104e-05
3.54843e-07
3.57294e-09
1.95573e-11
7.82932e-14
2.31787e-16
3.9245e-15
0
0
0
0
0
0
0
0
0
0
0
0
0
0
0
0
0
0
0
0
0
0
0
0
0
0
0
0
0
0
0
0
0
0
0
0
0
0
0
0
0
0
0
0
0
0
0
0
0
0
0
0
0
0
0
0
0
0
0
0
0
0
0
0
0
0
0
0
0
0
0
0
0
0
0
0
0
0
0
0
0
0
0
0
0
0
0
0
0
0
0
0
0
0
0
0
0
0
0
0
0
0
0
0
0
0
0
0
0
0
0
0
0
0
0
0
0
0
0
0
0
0
0
0
0
0
0
0
0
0.0679313
0.064699
0.0603366
0.0544908
0.0472311
0.0391637
0.0310753
0.0228753
0.0142497
0.0065399
0.00212597
0.000549191
0.000127051
2.81611e-05
6.45001e-06
1.43407e-06
2.6485e-07
4.18553e-08
5.84559e-09
7.38102e-10
8.47896e-11
8.73683e-12
7.6698e-13
4.80942e-14
1.80984e-16
0
0
0
0
0
0
0
0
0
0
0
0
0
0
0
0
0
0
0
0
0
0
0
0
0
0
0
0
0
0
0
0
0
0
0
0
0
0
0
0
0
0
0
0
0
0
0
0
0
0
0
0
0
0
0
0
0
0
0
0
0
0
0
0
0
0
0
0
0
0
0
0
0
0
0
0
0
0
0
0
0
0
0
0
0
0
0
0
0
0
0
0
0
0
0
0
0
0
0
0
0
0
0
0
0
0
0
0
0
0
0
0
0
0
0
0
0
0
0
0
0
0
0
0
0
0.0631556
0.0600528
0.0559213
0.0504534
0.043625
0.0357343
0.0271044
0.0177077
0.00870811
0.00298787
0.000792393
0.00018606
4.15831e-05
9.143e-06
2.00419e-06
3.98964e-07
6.86117e-08
1.03358e-08
1.39662e-09
1.73019e-10
1.9994e-11
2.18275e-12
2.26519e-13
2.2096e-14
2.0321e-15
3.17516e-18
0
0
0
0
0
0
0
0
0
0
0
0
0
0
0
0
0
0
0
0
0
0
0
0
0
0
0
0
0
0
0
0
0
0
0
0
0
0
0
0
0
0
0
0
0
0
0
0
0
0
0
0
0
0
0
0
0
0
0
0
0
0
0
0
0
0
0
0
0
0
0
0
0
0
0
0
0
0
0
0
0
0
0
0
0
0
0
0
0
0
0
0
0
0
0
0
0
0
0
0
0
0
0
0
0
0
0
0
0
0
0
0
0
0
0
0
0
0
0
0
0
0
0
0
0.0578919
0.0548019
0.0507066
0.0452913
0.0384001
0.0300381
0.0203754
0.0105718
0.0037863
0.00101284
0.000235027
5.13474e-05
1.0892e-05
2.26601e-06
4.56638e-07
8.31525e-08
1.33528e-08
1.90997e-09
2.48646e-10
3.02124e-11
3.52249e-12
4.06554e-13
4.81323e-14
6.06139e-15
8.22367e-16
1.14306e-16
0
0
0
0
0
0
0
0
0
0
0
0
0
0
0
0
0
0
0
0
0
0
0
0
0
0
0
0
0
0
0
0
0
0
0
0
0
0
0
0
0
0
0
0
0
0
0
0
0
0
0
0
0
0
0
0
0
0
0
0
0
0
0
0
0
0
0
0
0
0
0
0
0
0
0
0
0
0
0
0
0
0
0
0
0
0
0
0
0
0
0
0
0
0
0
0
0
0
0
0
0
0
0
0
0
0
0
0
0
0
0
0
0
0
0
0
0
0
0
0
0
0
0
0
0.0519907
0.0487543
0.0444362
0.0386554
0.0311079
0.0217568
0.0117598
0.00437897
0.00118336
0.000270393
5.74601e-05
1.17485e-05
2.3362e-06
4.51246e-07
8.30333e-08
1.38858e-08
2.0748e-09
2.7936e-10
3.46136e-11
4.0591e-12
4.66422e-13
5.48065e-14
6.93456e-15
9.87476e-16
1.39707e-16
3.17516e-18
0
0
0
0
0
0
0
0
0
0
0
0
0
0
0
0
0
0
0
0
0
0
0
0
0
0
0
0
0
0
0
0
0
0
0
0
0
0
0
0
0
0
0
0
0
0
0
0
0
0
0
0
0
0
0
0
0
0
0
0
0
0
0
0
0
0
0
0
0
0
0
0
0
0
0
0
0
0
0
0
0
0
0
0
0
0
0
0
0
0
0
0
0
0
0
0
0
0
0
0
0
0
0
0
0
0
0
0
0
0
0
0
0
0
0
0
0
0
0
0
0
0
0
0
0.0452537
0.0416642
0.0367957
0.0301841
0.0216038
0.0120319
0.00463952
0.0012764
0.000289041
5.98231e-05
1.18078e-05
2.2525e-06
4.16238e-07
7.4003e-08
1.24062e-08
1.89728e-09
2.61203e-10
3.25999e-11
3.76111e-12
4.12609e-13
4.46587e-14
4.99771e-15
6.28682e-16
6.66784e-17
0
0
0
0
0
0
0
0
0
0
0
0
0
0
0
0
0
0
0
0
0
0
0
0
0
0
0
0
0
0
0
0
0
0
0
0
0
0
0
0
0
0
0
0
0
0
0
0
0
0
0
0
0
0
0
0
0
0
0
0
0
0
0
0
0
0
0
0
0
0
0
0
0
0
0
0
0
0
0
0
0
0
0
0
0
0
0
0
0
0
0
0
0
0
0
0
0
0
0
0
0
0
0
0
0
0
0
0
0
0
0
0
0
0
0
0
0
0
0
0
0
0
0
0
0
0
0.0374361
0.0332646
0.0275407
0.0199628
0.0113541
0.00452223
0.00127803
0.000289949
5.87283e-05
1.11973e-05
2.05152e-06
3.63123e-07
6.19298e-08
1.00722e-08
1.53162e-09
2.12273e-10
2.65072e-11
2.99508e-12
3.10893e-13
3.03165e-14
2.84812e-15
2.57188e-16
3.17516e-18
0
0
0
0
0
0
0
0
0
0
0
0
0
0
0
0
0
0
0
0
0
0
0
0
0
0
0
0
0
0
0
0
0
0
0
0
0
0
0
0
0
0
0
0
0
0
0
0
0
0
0
0
0
0
0
0
0
0
0
0
0
0
0
0
0
0
0
0
0
0
0
0
0
0
0
0
0
0
0
0
0
0
0
0
0
0
0
0
0
0
0
0
0
0
0
0
0
0
0
0
0
0
0
0
0
0
0
0
0
0
0
0
0
0
0
0
0
0
0
0
0
0
0
0
0
0
0
0.0283314
0.0234908
0.0171025
0.00987471
0.00407525
0.001197
0.000275467
5.4931e-05
1.01136e-05
1.77514e-06
3.00529e-07
4.90721e-08
7.67387e-09
1.13387e-09
1.55139e-10
1.92179e-11
2.12844e-12
2.10456e-13
1.8689e-14
1.49868e-15
9.84301e-17
0
0
0
0
0
0
0
0
0
0
0
0
0
0
0
0
0
0
0
0
0
0
0
0
0
0
0
0
0
0
0
0
0
0
0
0
0
0
0
0
0
0
0
0
0
0
0
0
0
0
0
0
0
0
0
0
0
0
0
0
0
0
0
0
0
0
0
0
0
0
0
0
0
0
0
0
0
0
0
0
0
0
0
0
0
0
0
0
0
0
0
0
0
0
0
0
0
0
0
0
0
0
0
0
0
0
0
0
0
0
0
0
0
0
0
0
0
0
0
0
0
0
0
0
0
0
0
0
0
0.0182252
0.0133167
0.0078316
0.00339608
0.00107274
0.000259276
5.1725e-05
9.1266e-06
1.48962e-06
2.36272e-07
3.67697e-08
5.5068e-09
7.84025e-10
1.04315e-10
1.26865e-11
1.3776e-12
1.31217e-13
1.0821e-14
7.46163e-16
3.17516e-18
0
0
0
0
0
0
0
0
0
0
0
0
0
0
0
0
0
0
0
0
0
0
0
0
0
0
0
0
0
0
0
0
0
0
0
0
0
0
0
0
0
0
0
0
0
0
0
0
0
0
0
0
0
0
0
0
0
0
0
0
0
0
0
0
0
0
0
0
0
0
0
0
0
0
0
0
0
0
0
0
0
0
0
0
0
0
0
0
0
0
0
0
0
0
0
0
0
0
0
0
0
0
0
0
0
0
0
0
0
0
0
0
0
0
0
0
0
0
0
0
0
0
0
0
0
0
0
0
0
0
0.00895304
0.00550448
0.00259808
0.000914907
0.000243943
5.11512e-05
8.95039e-06
1.3918e-06
2.00786e-07
2.79476e-08
3.7897e-09
5.05429e-10
6.49221e-11
7.68973e-12
8.17516e-13
7.58356e-14
5.98836e-15
3.74669e-16
3.17516e-18
0
0
0
0
0
0
0
0
0
0
0
0
0
0
0
0
0
0
0
0
0
0
0
0
0
0
0
0
0
0
0
0
0
0
0
0
0
0
0
0
0
0
0
0
0
0
0
0
0
0
0
0
0
0
0
0
0
0
0
0
0
0
0
0
0
0
0
0
0
0
0
0
0
0
0
0
0
0
0
0
0
0
0
0
0
0
0
0
0
0
0
0
0
0
0
0
0
0
0
0
0
0
0
0
0
0
0
0
0
0
0
0
0
0
0
0
0
0
0
0
0
0
0
0
0
0
0
0
0
0
0
0.00324252
0.00174188
0.000713536
0.000220403
5.15758e-05
9.41797e-06
1.42878e-06
1.92946e-07
2.42788e-08
2.93561e-09
3.45485e-10
3.92342e-11
4.25375e-12
4.41967e-13
4.02103e-14
3.10531e-15
1.68284e-16
0
0
0
0
0
0
0
0
0
0
0
0
0
0
0
0
0
0
0
0
0
0
0
0
0
0
0
0
0
0
0
0
0
0
0
0
0
0
0
0
0
0
0
0
0
0
0
0
0
0
0
0
0
0
0
0
0
0
0
0
0
0
0
0
0
0
0
0
0
0
0
0
0
0
0
0
0
0
0
0
0
0
0
0
0
0
0
0
0
0
0
0
0
0
0
0
0
0
0
0
0
0
0
0
0
0
0
0
0
0
0
0
0
0
0
0
0
0
0
0
0
0
0
0
0
0
0
0
0
0
0
0
0
0.000969202
0.00048479
0.000182705
5.09624e-05
1.04589e-05
1.62794e-06
2.08118e-07
2.37599e-08
2.55599e-09
2.65076e-10
2.68123e-11
2.57794e-12
2.31304e-13
1.91907e-14
1.4447e-15
5.08026e-17
0
0
0
0
0
0
0
0
0
0
0
0
0
0
0
0
0
0
0
0
0
0
0
0
0
0
0
0
0
0
0
0
0
0
0
0
0
0
0
0
0
0
0
0
0
0
0
0
0
0
0
0
0
0
0
0
0
0
0
0
0
0
0
0
0
0
0
0
0
0
0
0
0
0
0
0
0
0
0
0
0
0
0
0
0
0
0
0
0
0
0
0
0
0
0
0
0
0
0
0
0
0
0
0
0
0
0
0
0
0
0
0
0
0
0
0
0
0
0
0
0
0
0
0
0
0
0
0
0
0
0
0
0
0
0.000272286
0.000131107
4.65205e-05
1.17755e-05
2.08023e-06
2.629e-07
2.6821e-08
2.4671e-09
2.20751e-10
1.94223e-11
1.68031e-12
1.36478e-13
1.01351e-14
6.57259e-16
3.17516e-18
0
0
0
0
0
0
0
0
0
0
0
0
0
0
0
0
0
0
0
0
0
0
0
0
0
0
0
0
0
0
0
0
0
0
0
0
0
0
0
0
0
0
0
0
0
0
0
0
0
0
0
0
0
0
0
0
0
0
0
0
0
0
0
0
0
0
0
0
0
0
0
0
0
0
0
0
0
0
0
0
0
0
0
0
0
0
0
0
0
0
0
0
0
0
0
0
0
0
0
0
0
0
0
0
0
0
0
0
0
0
0
0
0
0
0
0
0
0
0
0
0
0
0
0
0
0
0
0
0
0
0
0
0
0
0
7.66919e-05
3.6085e-05
1.22406e-05
2.83041e-06
4.18092e-07
3.85198e-08
2.81539e-09
1.88939e-10
1.37277e-11
1.03695e-12
7.79852e-14
5.46763e-15
3.27042e-16
0
0
0
0
0
0
0
0
0
0
0
0
0
0
0
0
0
0
0
0
0
0
0
0
0
0
0
0
0
0
0
0
0
0
0
0
0
0
0
0
0
0
0
0
0
0
0
0
0
0
0
0
0
0
0
0
0
0
0
0
0
0
0
0
0
0
0
0
0
0
0
0
0
0
0
0
0
0
0
0
0
0
0
0
0
0
0
0
0
0
0
0
0
0
0
0
0
0
0
0
0
0
0
0
0
0
0
0
0
0
0
0
0
0
0
0
0
0
0
0
0
0
0
0
0
0
0
0
0
0
0
0
0
0
0
0
0
2.20353e-05
1.02942e-05
3.43834e-06
7.51747e-07
8.92162e-08
4.4714e-09
1.84e-10
5.79791e-12
4.23659e-13
3.2393e-14
2.29882e-15
1.17481e-16
0
0
0
0
0
0
0
0
0
0
0
0
0
0
0
0
0
0
0
0
0
0
0
0
0
0
0
0
0
0
0
0
0
0
0
0
0
0
0
0
0
0
0
0
0
0
0
0
0
0
0
0
0
0
0
0
0
0
0
0
0
0
0
0
0
0
0
0
0
0
0
0
0
0
0
0
0
0
0
0
0
0
0
0
0
0
0
0
0
0
0
0
0
0
0
0
0
0
0
0
0
0
0
0
0
0
0
0
0
0
0
0
0
0
0
0
0
0
0
0
0
0
0
0
0
0
0
0
0
0
0
0
0
0
0
0
0
0
6.41192e-06
3.03715e-06
1.0552e-06
2.51426e-07
3.57033e-08
2.64293e-11
1.0105e-13
0
3.17516e-18
3.33392e-16
3.17516e-18
0
0
0
0
0
0
0
0
0
0
0
0
0
0
0
0
0
0
0
0
0
0
0
0
0
0
0
0
0
0
0
0
0
0
0
0
0
0
0
0
0
0
0
0
0
0
0
0
0
0
0
0
0
0
0
0
0
0
0
0
0
0
0
0
0
0
0
0
0
0
0
0
0
0
0
0
0
0
0
0
0
0
0
0
0
0
0
0
0
0
0
0
0
0
0
0
0
0
0
0
0
0
0
0
0
0
0
0
0
0
0
0
0
0
0
0
0
0
0
0
0
0
0
0
0
0
0
0
0
0
0
0
0
0
0
0
0
0
0
1.83699e-06
8.91741e-07
3.31631e-07
9.26303e-08
1.9535e-08
4.68083e-09
3.49268e-17
0
0
0
0
0
0
0
0
0
0
0
0
0
0
0
0
0
0
0
0
0
0
0
0
0
0
0
0
0
0
0
0
0
0
0
0
0
0
0
0
0
0
0
0
0
0
0
0
0
0
0
0
0
0
0
0
0
0
0
0
0
0
0
0
0
0
0
0
0
0
0
0
0
0
0
0
0
0
0
0
0
0
0
0
0
0
0
0
0
0
0
0
0
0
0
0
0
0
0
0
0
0
0
0
0
0
0
0
0
0
0
0
0
0
0
0
0
0
0
0
0
0
0
0
0
0
0
0
0
0
0
0
0
0
0
0
0
0
0
0
0
0
0
5.04227e-07
2.50277e-07
9.8623e-08
3.09349e-08
7.99273e-09
2.08113e-09
3.96419e-10
0
0
0
0
0
0
0
0
0
0
0
0
0
0
0
0
0
0
0
0
0
0
0
0
0
0
0
0
0
0
0
0
0
0
0
0
0
0
0
0
0
0
0
0
0
0
0
0
0
0
0
0
0
0
0
0
0
0
0
0
0
0
0
0
0
0
0
0
0
0
0
0
0
0
0
0
0
0
0
0
0
0
0
0
0
0
0
0
0
0
0
0
0
0
0
0
0
0
0
0
0
0
0
0
0
0
0
0
0
0
0
0
0
0
0
0
0
0
0
0
0
0
0
0
0
0
0
0
0
0
0
0
0
0
0
0
0
0
0
0
0
0
0
1.29947e-07
6.54663e-08
2.68077e-08
9.01961e-09
2.57482e-09
6.96581e-10
1.57057e-10
2.58467e-11
2.18578e-14
0
0
0
0
0
0
0
0
0
0
0
0
0
0
0
0
0
0