/*--------------------------------*- C++ -*----------------------------------*\
| =========                 |                                                 |
| \\      /  F ield         | OpenFOAM: The Open Source CFD Toolbox           |
|  \\    /   O peration     | Version:  2.1.0                                 |
|   \\  /    A nd           | Web:      www.OpenFOAM.org                      |
|    \\/     M anipulation  |                                                 |
\*---------------------------------------------------------------------------*/
FoamFile
{
    version     2.0;
    format      ascii;
    class       surfaceScalarField;
    location    "4015";
    object      phi_o;
}
// * * * * * * * * * * * * * * * * * * * * * * * * * * * * * * * * * * * * * //

dimensions      [1 -2 -2 0 0 0 0];

internalField   nonuniform List<scalar> 
29750
(
18.6764
18.71
11.9313
7.6651
9.20593
3.95966
7.86276
2.44928
7.0821
1.70455
6.58224
1.27956
6.24587
1.00959
6.01599
0.823964
5.86191
0.688437
5.76611
0.584928
5.71787
0.503269
5.70916
0.437127
5.73379
0.382334
5.78703
0.336123
5.86525
0.296637
5.96562
0.262635
6.08583
0.233291
6.22391
0.208029
6.37817
0.186435
6.54717
0.168238
6.72967
0.15327
6.92471
0.141392
7.1316
0.132497
7.35008
0.126542
7.58054
0.123523
7.8241
0.123476
8.083
0.126531
8.36093
0.133015
8.66364
0.143507
9.00034
0.159113
9.38575
0.18234
9.84043
0.217916
10.3814
0.273204
10.9644
0.352303
11.3205
0.42202
11.1138
0.383254
10.6777
0.273204
10.3657
0.211631
10.1474
0.187698
9.96379
0.176076
9.79339
0.16865
9.62964
0.163346
9.47018
0.15937
9.31401
0.156193
9.16066
0.153355
9.01015
0.150526
8.86274
0.147412
8.71894
0.143801
8.57941
0.139567
8.44484
0.134583
8.31602
0.128813
8.19374
0.122301
8.07867
0.115091
7.9714
0.107282
7.87241
0.0990285
7.78196
0.0904769
7.70018
0.0817836
7.62701
0.0731521
7.56224
0.0647814
7.5054
0.0568333
7.45593
0.049466
7.4131
0.042834
7.37608
0.0370439
7.34393
0.0321504
7.31573
0.028188
7.29056
0.025166
7.26753
0.0230387
7.24583
0.0217131
7.22474
0.0210851
7.2037
0.0210501
7.18224
0.0214895
7.15998
0.0222767
7.13668
0.0233041
7.11219
0.0244956
7.08641
0.0257875
7.05932
0.0271127
7.03092
0.0284058
7.0013
0.0296158
6.9706
0.0306991
6.939
0.0316032
6.90676
0.0322609
6.87417
0.0326027
6.8416
0.0325676
6.80951
0.032102
6.77838
0.031153
6.74872
0.0296706
6.7211
0.0276177
6.69612
0.0249742
6.6744
0.0217289
6.65656
0.0178684
6.6432
0.0133727
6.63499
0.00821872
6.6326
0.0023834
6.63675
-0.00416185
6.64821
-0.0114608
6.6678
-0.0195792
6.69641
-0.0286044
6.73506
-0.0386436
6.78489
-0.0498252
6.8472
-0.0623051
6.92347
-0.0762716
7.01541
-0.0919465
7.12497
-0.109582
7.25442
-0.129459
7.4063
-0.151885
7.58348
-0.177186
7.78918
-0.205694
8.02689
-0.237712
8.30033
-0.273458
8.61329
-0.312988
8.96937
-0.356088
9.37149
-0.402131
9.82141
-0.449908
10.3189
-0.497477
10.861
-0.542115
11.4416
-0.580558
12.0514
-0.609763
12.6797
-0.628351
13.3183
-0.638565
13.9661
-0.647802
14.6343
-0.668201
15.348
-0.713675
16.1443
-0.796332
17.0671
-0.922834
18.1566
-1.08946
19.4309
-1.27433
20.8586
-1.42771
22.3275
-1.46892
23.6412
-1.31362
24.6023
-0.961162
25.1837
-0.581359
25.4296
-0.245886
25.3824
0.0472112
25.0582
0.324211
24.4628
0.595421
23.6375
0.825305
22.6937
0.943838
21.6741
1.0196
20.5401
1.13401
19.22
1.3201
17.6655
1.55447
15.8882
1.77735
13.9383
1.94986
11.8894
2.04896
9.8123
2.07708
7.75781
2.0545
5.75166
2.00615
3.79837
1.9533
1.88756
1.91082
1.88757
7.63147
11.9975
8.2259
8.29218
7.69554
5.64589
7.11803
4.02059
6.65711
3.01143
6.31228
2.35419
6.06024
1.90255
5.88047
1.57631
5.7584
1.33036
5.68445
1.13844
5.65173
0.984622
5.65437
0.858438
5.68758
0.752867
5.74754
0.663157
5.83125
0.5861
5.93628
0.519532
6.06057
0.461955
6.20232
0.412317
6.35997
0.369919
6.5322
0.33429
6.71779
0.305098
6.91582
0.282131
7.12564
0.265265
7.34707
0.254447
7.58049
0.249696
7.82716
0.25114
8.08948
0.25912
8.37143
0.274282
8.67925
0.297784
9.02357
0.33209
9.42132
0.381948
9.89572
0.455125
10.4605
0.560643
11.0341
0.690745
11.2818
0.760648
11.0038
0.653636
10.6162
0.499479
10.3417
0.414465
10.1358
0.3736
9.95636
0.350651
9.78809
0.335823
9.62566
0.325533
9.46701
0.318014
9.31117
0.312047
9.15783
0.306731
9.00703
0.30134
8.85913
0.295324
8.7147
0.288278
8.57442
0.279872
8.43907
0.269927
8.30951
0.258402
8.18653
0.245314
8.07086
0.230785
7.96314
0.215047
7.86385
0.198369
7.77327
0.181058
7.69155
0.163491
7.61864
0.146062
7.55429
0.129139
7.49804
0.113076
7.4493
0.0982173
7.40731
0.0848492
7.37118
0.0731771
7.33997
0.0633486
7.31271
0.0554479
7.28843
0.049462
7.26621
0.0452782
7.2452
0.0427245
7.22471
0.0415955
7.20414
0.0416525
7.18303
0.042635
7.16101
0.0442993
7.13787
0.0464458
7.11348
0.0489128
7.08774
0.0515563
7.06061
0.0542476
7.03213
0.0568802
7.00238
0.0593626
6.9715
0.0615971
6.93966
0.0634662
6.9071
0.0648389
6.87413
0.0655846
6.84114
0.0655787
6.80857
0.0647012
6.7769
0.0628404
6.74667
0.0599038
6.71846
0.0558265
6.69288
0.0505666
6.67054
0.0440936
6.65206
0.0363784
6.63805
0.0273921
6.62915
0.0171036
6.62605
0.00547326
6.62945
-0.00756025
6.64009
-0.0220903
6.65877
-0.0382464
6.68637
-0.0561956
6.72388
-0.0761454
6.77241
-0.0983514
6.83323
-0.123126
6.90779
-0.150845
6.99777
-0.181946
7.1051
-0.216932
7.23199
-0.256369
7.38099
-0.300887
7.55497
-0.351163
7.75716
-0.40789
7.99114
-0.471716
8.2608
-0.543148
8.57019
-0.622408
8.92332
-0.70922
9.32372
-0.802506
9.77385
-0.900007
10.2743
-0.997876
10.8226
-1.09042
11.4124
-1.17036
12.0328
-1.23014
12.6695
-1.26508
13.3091
-1.27811
13.9457
-1.28445
14.5888
-1.31134
15.2653
-1.39017
16.0178
-1.54882
16.9005
-1.80554
17.9717
-2.16066
19.2775
-2.58015
20.8174
-2.9676
22.4828
-3.13434
23.9936
-2.8244
24.9821
-1.94966
25.5192
-1.11838
25.7227
-0.449385
25.6594
0.110529
25.3294
0.654222
24.6927
1.23218
23.756
1.76197
22.7694
1.93046
21.7885
2.00056
20.7262
2.19635
19.4544
2.59193
17.8884
3.12043
16.0607
3.60508
14.0374
3.97311
11.9175
4.1689
9.78972
4.20488
7.70946
4.13478
5.69881
4.01682
3.75589
3.89623
1.86431
3.80241
3.75188
3.92615
9.30536
5.5796
7.79507
6.07024
6.16964
6.10888
4.86099
5.99988
3.88662
5.86064
3.16915
5.734
2.63298
5.63451
2.22256
5.56648
1.90033
5.53064
1.64158
5.52554
1.42952
5.54879
1.25248
5.59787
1.10233
5.67048
0.973432
5.76468
0.8619
5.8787
0.765025
6.01093
0.680909
6.15992
0.608243
6.32434
0.546151
6.50301
0.494048
6.69483
0.451556
6.89895
0.418476
7.11482
0.394709
7.34232
0.380244
7.58193
0.37519
7.83514
0.37981
8.10464
0.394633
8.39493
0.420632
8.71356
0.459698
9.07343
0.515672
9.4945
0.595192
10.0012
0.707849
10.5906
0.859073
11.104
1.01147
11.1747
1.02193
10.8496
0.847946
10.5312
0.687735
10.3009
0.598991
10.1128
0.549605
9.94154
0.519099
9.7778
0.498955
9.61814
0.485104
9.46104
0.475109
9.30586
0.467243
9.15244
0.460145
9.00102
0.452767
8.85208
0.444295
8.7063
0.434083
8.56448
0.421691
8.42754
0.40688
8.29642
0.389545
8.172
0.36974
8.05512
0.347695
7.94647
0.323743
7.84654
0.2983
7.7557
0.271885
7.67412
0.24508
7.60172
0.218468
7.53822
0.192627
7.48318
0.168128
7.43593
0.145493
7.39564
0.125154
7.36136
0.107452
7.33207
0.0926334
7.30672
0.0808127
7.28425
0.0719479
7.26365
0.0658673
7.24407
0.0623069
7.22476
0.0609247
7.20513
0.0613189
7.18469
0.0630771
7.16316
0.0658308
7.14034
0.0692752
7.11612
0.073157
7.09043
0.0772637
7.06325
0.0814239
7.03461
0.0855002
7.00461
0.0893626
6.97337
0.0928608
6.94103
0.0958169
6.90785
0.0980356
6.87413
0.099317
6.84026
0.099462
6.8067
0.098278
6.77396
0.0955931
6.74259
0.0912719
6.7132
0.0852198
6.68641
0.0773749
6.66283
0.0676949
6.64307
0.0561471
6.62776
0.042703
6.61752
0.0273289
6.61302
0.00997162
6.61492
-0.00945776
6.62394
-0.031094
6.64082
-0.0551229
6.66642
-0.0817852
6.70167
-0.111386
6.74763
-0.144303
6.80551
-0.181002
6.87669
-0.222037
6.96278
-0.26806
7.06566
-0.319824
7.18747
-0.378191
7.33072
-0.444127
7.49825
-0.518691
7.69334
-0.602991
7.91971
-0.698114
8.18154
-0.805005
8.48338
-0.924271
8.83004
-1.05587
9.22622
-1.19867
9.67598
-1.34974
10.1817
-1.50361
10.7427
-1.65134
11.3526
-1.7803
11.9979
-1.87537
12.6565
-1.9237
13.3027
-1.92435
13.9188
-1.90055
14.51
-1.90252
15.1067
-1.98686
15.7611
-2.20322
16.5454
-2.58985
17.5522
-3.16749
18.8901
-3.918
20.6507
-4.72818
22.7928
-5.27646
24.8684
-4.89996
25.8134
-2.8947
26.1882
-1.49311
26.2826
-0.543808
26.2031
0.190068
25.9074
0.949967
25.2225
1.9171
23.9245
3.05995
22.8395
3.01547
21.9843
2.85582
21.1218
3.0589
19.9829
3.73081
18.3731
4.73024
16.4287
5.54942
14.2332
6.16862
11.9535
6.44864
9.71962
6.43877
7.5915
6.26291
5.57822
6.03012
3.66206
5.8124
1.81378
5.6507
5.56566
2.41586
7.9976
3.95417
7.25247
4.76159
6.24241
5.13451
5.2671
5.2824
4.43294
5.32447
3.75121
5.32358
3.20052
5.31229
2.75388
5.30773
2.38792
5.31858
2.08432
5.3485
1.82898
5.39864
1.6114
5.46897
1.4239
5.55895
1.26099
5.66781
1.11873
5.79458
0.994299
5.93827
0.885723
6.09783
0.791656
6.27224
0.711192
6.46052
0.643766
6.66175
0.589084
6.87519
0.547041
7.10036
0.517632
7.33726
0.500955
7.58655
0.497252
7.84996
0.506986
8.13064
0.530926
8.43399
0.570412
8.76953
0.628243
9.15295
0.709678
9.60716
0.823278
10.1525
0.978647
10.743
1.16696
11.1145
1.29334
11.0008
1.19784
10.6894
0.991319
10.4424
0.847277
10.2515
0.763765
10.0823
0.712195
9.92139
0.678526
9.76395
0.656046
9.60815
0.640822
9.45317
0.63007
9.29876
0.621638
9.14506
0.613839
8.99254
0.605317
8.84187
0.594991
8.69391
0.582056
8.54967
0.565957
8.41021
0.546354
8.27662
0.523129
8.14995
0.496409
8.03117
0.466511
7.92102
0.433898
7.82013
0.399187
7.7289
0.363118
7.64751
0.326484
7.57588
0.290096
7.51372
0.254778
7.46054
0.22133
7.41559
0.190468
7.37794
0.162806
7.34654
0.138847
7.32025
0.118936
7.29786
0.103217
7.27817
0.0916271
7.26009
0.0839262
7.24269
0.0797195
7.22516
0.0784797
7.20688
0.0796063
7.18745
0.0825103
7.1666
0.086676
7.14422
0.0916774
7.12023
0.0971731
7.09459
0.102902
7.06732
0.108675
7.03847
0.114339
7.00811
0.119735
6.97632
0.124667
6.94325
0.1289
6.90913
0.132167
6.87427
0.134188
6.83908
0.134674
6.80402
0.133349
6.76964
0.129974
6.73654
0.124368
6.70535
0.116408
6.67673
0.106019
6.65128
0.0931578
6.62963
0.0778032
6.61238
0.0599393
6.60016
0.0395397
6.59359
0.016547
6.59328
-0.00914582
6.59991
-0.0377053
6.61416
-0.0693649
6.63682
-0.104433
6.66876
-0.143303
6.71093
-0.186471
6.76448
-0.234542
6.83067
-0.288243
6.91102
-0.348431
7.00729
-0.416109
7.12154
-0.492438
7.25615
-0.578739
7.41395
-0.676486
7.59821
-0.787273
7.81282
-0.912746
8.06227
-1.05448
8.35178
-1.21379
8.68724
-1.39133
9.07514
-1.58655
9.52211
-1.7967
10.034
-2.01547
10.6137
-2.23105
11.2576
-2.42413
11.9495
-2.56734
12.6558
-2.63
13.3265
-2.59505
13.9169
-2.49087
14.4257
-2.41132
14.8903
-2.4515
15.3744
-2.68735
15.9677
-3.18315
16.8017
-4.00146
18.0799
-5.19618
20.1024
-6.75067
23.1693
-8.34337
26.8736
-8.6043
27.215
-3.23605
27.1375
-1.41556
27.0165
-0.422802
26.963
0.243582
26.8745
1.03848
26.3653
2.4263
23.88
5.54524
22.6799
4.21564
22.1874
3.34836
21.7937
3.45261
20.9823
4.54218
19.1922
6.52031
17.0479
7.69373
14.5132
8.70332
11.9436
9.01827
9.54376
8.83864
7.35872
8.44796
5.36051
8.02834
3.50036
7.67256
1.72874
7.42232
7.29439
1.67073
7.2548
2.94411
6.82854
3.78628
6.16885
4.30035
5.44841
4.60068
4.7644
4.77378
4.15566
4.87694
3.62933
4.94632
3.17912
5.00412
2.79452
5.06324
2.46453
5.13092
2.17933
5.21114
1.93098
5.30606
1.71331
5.41669
1.52166
5.54338
1.35257
5.68601
1.20351
5.8442
1.07272
6.01737
0.958999
6.20481
0.861593
6.40583
0.780116
6.6197
0.714475
6.84578
0.664737
7.08368
0.631108
7.33356
0.613932
7.59629
0.613674
7.8739
0.631035
8.17013
0.667041
8.49183
0.723637
8.85097
0.804813
9.26655
0.917584
9.76253
1.07187
10.3408
1.27138
10.8694
1.46762
11.019
1.49219
10.7942
1.29758
10.5453
1.10405
10.3589
0.983978
10.1999
0.909301
10.0487
0.860217
9.89891
0.827537
9.74872
0.806087
9.5974
0.792131
9.44474
0.782696
9.29096
0.775396
9.13654
0.76825
8.98222
0.759638
8.82893
0.748286
8.67781
0.733216
8.53006
0.713732
8.38698
0.689428
8.2499
0.660212
8.12005
0.626269
7.99855
0.588026
7.88631
0.546134
7.78406
0.501445
7.69226
0.454932
7.61112
0.407638
7.54056
0.360652
7.48028
0.315073
7.42968
0.271945
7.38793
0.232222
7.35398
0.196746
7.32663
0.166201
7.30453
0.141045
7.28627
0.121471
7.27047
0.107403
7.25589
0.0985002
7.24145
0.0941779
7.22628
0.0936618
7.20979
0.0961005
7.19161
0.10068
7.1716
0.106698
7.14972
0.113592
7.12596
0.120947
7.10036
0.128487
7.07299
0.136038
7.04387
0.143458
7.01305
0.150579
6.98056
0.157172
6.94652
0.162943
6.91115
0.167547
6.87476
0.170597
6.83775
0.171694
6.80064
0.17046
6.76403
0.166578
6.72858
0.159817
6.69496
0.150027
6.66387
0.137134
6.63593
0.12111
6.61177
0.101964
6.59199
0.0797109
6.57717
0.0543475
6.56789
0.0258256
6.56472
-0.00596677
6.56825
-0.0412171
6.57909
-0.0801971
6.59795
-0.123273
6.62559
-0.170921
6.66286
-0.223737
6.71077
-0.282457
6.77048
-0.347963
6.84334
-0.421309
6.93096
-0.503739
7.03524
-0.596709
7.15841
-0.701905
7.30316
-0.821244
7.47274
-0.95687
7.67108
-1.11111
7.90296
-1.28639
8.17424
-1.48507
8.49203
-1.70912
8.86499
-1.9595
9.30335
-2.23504
9.81841
-2.53052
10.4206
-2.83324
11.1143
-3.11784
11.8869
-3.33986
12.6908
-3.43392
13.4307
-3.33499
13.9964
-3.05654
14.3855
-2.80038
14.6544
-2.72048
14.8786
-2.91154
15.1494
-3.45392
15.607
-4.45901
16.5254
-6.11461
18.5097
-8.73496
22.9084
-12.742
32.2419
-17.9378
29.0355
-30.8762
28.1302
-9.41882
27.6829
0.284683
27.7579
1.92127
28.2623
5.80309
29.4843
12.8869
22.5504
12.4791
21.8126
4.95349
22.2916
2.86937
22.8832
2.86099
22.9604
4.46497
20.3657
9.11507
18.0575
10.0019
14.8282
11.9327
11.764
12.0825
9.15308
11.4496
6.93909
10.662
5.00473
9.96271
3.25011
9.42719
1.60081
9.07162
8.89521
1.24447
6.7957
2.28442
6.52318
3.06583
6.06669
3.61635
5.52431
3.99194
4.96747
4.24745
4.43693
4.42673
3.95119
4.56173
3.51566
4.67413
3.12868
4.77805
2.7856
4.88257
2.48107
4.99347
2.21013
5.11441
1.96855
5.24759
1.75294
5.39432
1.56067
5.55522
1.3898
5.73048
1.23899
5.91996
1.10735
6.12334
0.994448
6.34019
0.900233
6.56997
0.824908
6.81215
0.768855
7.06651
0.732675
7.3333
0.717102
7.61365
0.722961
7.9099
0.751251
8.22672
0.803423
8.573
0.882473
8.96374
0.993948
9.42083
1.14665
9.96204
1.34858
10.537
1.57854
10.8939
1.70633
10.8244
1.57672
10.6007
1.3533
10.4253
1.19777
10.2842
1.10067
10.1508
1.03655
10.016
0.993581
9.87746
0.965753
9.73477
0.948736
9.58796
0.938909
9.43744
0.933214
9.28381
0.929019
9.12793
0.92412
8.97087
0.916712
8.81387
0.90532
8.65832
0.888787
8.50576
0.8663
8.35777
0.837411
8.21595
0.80203
8.08181
0.76042
7.95666
0.713173
7.84162
0.661178
7.73755
0.605544
7.64497
0.547526
7.56413
0.488479
7.49498
0.42981
7.43715
0.372917
7.38996
0.319135
7.35245
0.26971
7.32343
0.225753
7.30147
0.188164
7.28496
0.157556
7.2722
0.134206
7.26157
0.118021
7.25156
0.108514
7.24093
0.104833
7.22872
0.105874
7.21437
0.110446
7.19763
0.117423
7.1785
0.125859
7.15707
0.135044
7.1335
0.144524
7.10791
0.15406
7.08041
0.163543
7.05099
0.172889
7.01964
0.181953
6.98633
0.190491
6.95112
0.198152
6.9142
0.204483
6.87585
0.20896
6.83652
0.211038
6.79676
0.210208
6.75727
0.206058
6.71879
0.198296
6.68207
0.186757
6.64784
0.17138
6.61678
0.152183
6.58951
0.12923
6.56662
0.102594
6.54865
0.0723162
6.5361
0.0383754
6.52947
0.000668809
6.52927
-0.0410004
6.53602
-0.0869322
6.5503
-0.137541
6.57277
-0.19337
6.60414
-0.255105
6.64527
-0.323588
6.69713
-0.399844
6.76091
-0.4851
6.83799
-0.580824
6.93004
-0.688753
7.03907
-0.810927
7.16753
-0.949719
7.3185
-1.10785
7.4958
-1.28843
7.70428
-1.49489
7.95019
-1.73099
8.24166
-2.00059
8.58945
-2.30728
9.00787
-2.65345
9.51568
-3.03832
10.136
-3.45357
10.8923
-3.87413
11.7928
-4.24034
12.7897
-4.43082
13.7092
-4.25444
14.2526
-3.59993
14.4654
-3.01319
14.4634
-2.71849
14.3363
-2.7844
14.1443
-3.26196
13.9514
-4.26607
13.9051
-6.06827
14.5026
-9.33251
17.7126
-15.952
19.3035
-21.1035
50.4929
-42.206
37.8337
-33.4288
29.3195
-6.55248
31.6397
14.3755
35.3461
18.0229
29.0765
8.73533
15.0249
2.24203
19.7285
3.08847
22.2832
3.8207
24.4872
7.36798
27.6105
14.808
21.2525
15.4731
19.9883
11.2661
14.978
16.9429
11.1311
15.9294
8.36548
14.2152
6.23984
12.7876
4.46921
11.7333
2.89454
11.0019
1.4244
10.5418
10.3196
0.971951
6.50389
1.82793
6.31392
2.52345
5.97952
3.05951
5.55824
3.46139
5.09973
3.76171
4.63878
3.99119
4.19631
4.17475
3.78278
4.33105
3.40198
4.47353
3.05404
4.61162
2.73742
4.7519
2.44995
4.8988
2.1894
5.05532
1.95378
5.22345
1.74148
5.4044
1.55129
5.59884
1.38241
5.80706
1.23444
6.02912
1.10741
6.26487
1.00169
6.51391
0.917952
6.77597
0.857134
7.05093
0.820414
7.33916
0.809069
7.64194
0.824471
7.96208
0.868139
8.30578
0.942568
8.68448
1.05221
9.11644
1.20438
9.62276
1.4076
10.192
1.65361
10.6648
1.84941
10.7643
1.80415
10.6009
1.57889
10.4452
1.39323
10.3282
1.27577
10.2201
1.19833
10.1079
1.14619
9.98816
1.11271
9.86045
1.09336
9.72494
1.08419
9.58227
1.08157
9.43325
1.08223
9.27891
1.08333
9.12052
1.08252
8.95947
1.07779
8.79733
1.06749
8.63584
1.05029
8.47687
1.02527
8.32239
0.991892
8.17434
0.950073
8.03456
0.900198
7.90467
0.843077
7.78599
0.779878
7.67953
0.71203
7.58592
0.641144
7.50546
0.568944
7.43809
0.497194
7.38337
0.427633
7.34053
0.361946
7.30849
0.301722
7.28584
0.248393
7.27086
0.203138
7.26161
0.166798
7.25601
0.139784
7.25206
0.121985
7.24788
0.112712
7.24197
0.110754
7.23329
0.114543
7.22135
0.122389
7.20607
0.132722
7.18768
0.144274
7.16655
0.156191
7.14303
0.168035
7.1174
0.17969
7.08975
0.191198
7.06006
0.202605
7.02818
0.213846
6.99399
0.224682
6.95746
0.234691
6.91868
0.243275
6.87793
0.249719
6.83569
0.253278
6.79261
0.253268
6.74951
0.249149
6.70725
0.240561
6.66669
0.227332
6.62864
0.209447
6.59383
0.187008
6.56288
0.160178
6.53634
0.12912
6.51471
0.0939485
6.4984
0.0546899
6.48781
0.0112647
6.48334
-0.0365224
6.48541
-0.0889905
6.49448
-0.146591
6.51104
-0.209918
6.53566
-0.279728
6.56901
-0.35695
6.61188
-0.442722
6.66519
-0.538419
6.73006
-0.645699
6.80787
-0.766549
6.90028
-0.903333
7.0094
-1.05885
7.13793
-1.2364
7.28934
-1.43985
7.46818
-1.67375
7.68059
-1.9434
7.93497
-2.25497
8.24328
-2.61558
8.623
-3.03316
9.10043
-3.51574
9.71546
-4.06858
10.5261
-4.68478
11.6023
-5.31653
12.9661
-5.7946
14.3637
-5.652
14.8393
-4.07557
14.7601
-2.93393
14.3975
-2.35591
13.8587
-2.2456
13.1402
-2.54348
12.1492
-3.27503
10.6408
-4.55991
7.88309
-6.5748
12.5612
-9.25632
-1.79912
-15.2283
59.2701
-6.81845
64.7101
-13.3045
50.2474
1.50139
35.2871
11.4134
26.0585
17.3904
22.5832
23.1835
15.8713
25.7279
20.4607
29.5835
25.8305
30.173
31.9272
19.7877
28.2757
14.0415
17.0454
12.9872
25.6652
30.4093
13.9645
28.6436
9.4168
20.4772
6.93794
16.694
5.18555
14.54
3.73774
13.1812
2.43443
12.3052
1.20225
11.7739
11.5219
0.781982
6.32387
1.49353
6.1817
2.10218
5.92317
2.601
5.58378
3.00044
5.19798
3.31925
4.79343
3.57766
4.38945
3.79394
3.99815
3.98312
3.62641
4.15691
3.27761
4.32415
2.9531
4.49134
2.65302
4.66318
2.37696
4.84302
2.12428
5.03327
1.89441
5.23552
1.6869
5.45087
1.50157
5.68003
1.33864
5.92341
1.19868
6.18113
1.0826
6.4531
0.991782
6.73925
0.927943
7.03959
0.893041
7.35456
0.889227
7.68561
0.918761
8.03651
0.984417
8.41542
1.09034
8.83665
1.24281
9.31966
1.44926
9.86877
1.70583
10.3878
1.94199
10.6195
1.96894
10.5391
1.76439
10.4153
1.55968
10.3277
1.42572
10.2507
1.33717
10.168
1.27713
10.0744
1.23882
9.96881
1.21803
9.85127
1.21082
9.72232
1.21312
9.58293
1.22096
9.43435
1.23078
9.2781
1.23958
9.11579
1.24484
8.94917
1.24443
8.78014
1.23652
8.61082
1.21963
8.44349
1.19261
8.28057
1.15481
8.12447
1.10617
7.97744
1.04723
7.84147
0.979077
7.71814
0.903234
7.60864
0.82155
7.51372
0.736074
7.43371
0.64896
7.36853
0.562375
7.31768
0.478456
7.28031
0.399284
7.25516
0.326846
7.24059
0.262963
7.23452
0.209196
7.23459
0.166722
7.23821
0.136168
7.24279
0.117434
7.24593
0.109586
7.24576
0.110912
7.24114
0.119151
7.23168
0.131859
7.21762
0.146809
7.1996
0.162315
7.1784
0.177396
7.15469
0.191732
7.12891
0.205472
7.10116
0.218955
7.0713
0.23248
7.03901
0.246131
7.004
0.259698
6.96604
0.272658
6.92512
0.284206
6.88149
0.293356
6.83568
0.299076
6.78849
0.300435
6.74092
0.296715
6.69402
0.287477
6.64881
0.272566
6.60621
0.252065
6.567
0.22622
6.53182
0.195351
6.50117
0.159761
6.47545
0.119668
6.45497
0.0751697
6.44002
0.026221
6.43087
-0.0273646
6.42781
-0.0859175
6.43115
-0.149915
6.44123
-0.219989
6.45844
-0.296941
6.48324
-0.381763
6.51618
-0.475671
6.55791
-0.580148
6.60922
-0.697001
6.67108
-0.82841
6.74476
-0.977006
6.83185
-1.14595
6.93447
-1.33903
7.05544
-1.56083
7.19854
-1.81685
7.36902
-2.11388
7.57436
-2.46031
7.82569
-2.8669
8.14042
-3.34788
8.5476
-3.92291
9.09925
-4.62021
9.89437
-5.4799
11.1243
-6.54641
13.1087
-7.77906
15.9401
-8.4834
15.9809
-4.11639
15.3381
-2.29107
14.5078
-1.5256
13.5608
-1.2986
12.4087
-1.39131
10.8643
-1.73069
8.62592
-2.32153
5.20156
-3.15045
6.58919
-4.63526
6.61072
-7.25272
52.7841
-4.20104
79.5159
10.097
60.1594
20.8579
41.2641
30.3087
31.8517
42.5673
25.1276
51.6413
19.7269
56.2183
21.0502
57.1502
15.4452
51.3694
26.1811
43.3358
27.2213
42.2655
34.4675
55.6903
23.8996
50.1955
5.79802
24.9254
5.63367
20.6415
4.78394
17.5438
3.82668
15.4973
2.86178
14.1461
1.90317
13.2638
0.95016
12.727
12.472
0.639812
6.22707
1.235
6.11398
1.76278
5.90374
2.2152
5.61948
2.59589
5.2855
2.91526
4.92321
3.18637
4.54949
3.4222
4.17661
3.63432
3.81298
3.83239
3.46409
4.02407
3.13331
4.21528
2.82263
4.4105
2.53311
4.61314
2.26532
4.82576
2.01961
5.0502
1.79629
5.28794
1.59584
5.54006
1.41907
5.80733
1.26717
6.09031
1.14187
6.38926
1.04537
6.70434
0.980452
7.03577
0.950292
7.3841
0.958355
7.75126
1.00869
8.14243
1.10637
8.56789
1.25773
9.04309
1.46924
9.57623
1.73655
10.1049
1.99675
10.4148
2.07037
10.415
1.89479
10.3344
1.68693
10.2813
1.54415
10.2392
1.4474
10.1907
1.3802
10.1296
1.33687
10.0536
1.31454
9.9616
1.30993
9.85357
1.31885
9.73017
1.33654
9.59275
1.35837
9.44315
1.38038
9.28336
1.39938
9.11538
1.41281
8.94126
1.41852
8.76324
1.41455
8.58379
1.39908
8.40569
1.3707
8.23193
1.32855
8.06553
1.27258
7.90929
1.2035
7.76562
1.12277
7.63646
1.03243
7.52317
0.934853
7.42661
0.832639
7.34713
0.728438
7.28461
0.624875
7.23851
0.524525
7.20787
0.429899
7.19128
0.34343
7.18682
0.267424
7.19205
0.203965
7.20404
0.154738
7.21948
0.120744
7.23494
0.101992
7.24725
0.0972699
7.254
0.104148
7.25385
0.119298
7.24663
0.139097
7.23312
0.160334
7.21468
0.180765
7.19273
0.199332
7.16843
0.216026
7.14239
0.23151
7.11468
0.246665
7.08495
0.262215
7.05258
0.278492
7.01696
0.295326
6.97759
0.31204
6.93427
0.327529
6.88721
0.340411
6.83704
0.34923
6.78477
0.352685
6.73168
0.34981
6.67911
0.340074
6.62831
0.323389
6.58036
0.300018
6.53613
0.270451
6.49623
0.235245
6.46108
0.194905
6.43095
0.149796
6.40602
0.1001
6.38643
0.0458142
6.37232
-0.0132389
6.36381
-0.0774001
6.36107
-0.147165
6.36428
-0.223187
6.37362
-0.306288
6.38933
-0.397488
6.4117
-0.498044
6.44106
-0.609498
6.47781
-0.733742
6.52249
-0.873082
6.57581
-1.03033
6.63877
-1.2089
6.71268
-1.41296
6.79941
-1.64756
6.90151
-1.91896
7.02258
-2.23495
7.16777
-2.60549
7.34471
-3.04384
7.56539
-3.56856
7.8503
-4.20782
8.23956
-5.00946
8.82786
-6.06819
9.89161
-7.61016
12.4044
-10.2918
20.3071
-16.3861
17.8063
-17.761
16.1036
-8.49248
14.7348
-3.06301
13.4681
-0.491789
12.0693
0.111548
10.2735
0.815642
7.797
1.78053
3.71675
0.929787
3.97174
-1.25559
9.6624
-2.79318
67.0821
25.6077
90.2768
46.4737
69.6103
41.5244
53.5227
46.3964
40.9256
55.1644
29.7045
62.8625
20.6588
65.264
15.2694
62.5396
7.41161
59.2272
25.1108
64.6003
40.6461
65.8048
28.9726
56.6728
-1.37051
30.7182
1.51415
23.3153
2.53592
19.6198
2.73747
17.3422
2.47545
15.7593
1.97952
14.642
1.36632
13.877
0.695221
13.3981
13.1672
0.526721
6.19879
1.02476
6.10381
1.47853
5.92433
1.88121
5.67612
2.23361
5.37685
2.54155
5.04343
2.81349
4.69055
3.05857
4.33008
3.28543
3.97116
3.50162
3.62056
3.71339
3.28315
3.92576
2.96224
4.14272
2.6601
4.36744
2.37828
4.60244
2.11786
4.84975
1.87982
5.11116
1.66527
5.38817
1.47562
5.68202
1.31279
5.99382
1.17943
6.32433
1.07887
6.67418
1.01531
7.04384
0.993639
7.43443
1.01983
7.84895
1.10114
8.29378
1.24575
8.77939
1.46051
9.31041
1.73811
9.83643
2.01068
10.1785
2.10355
10.2392
1.95587
10.2071
1.76502
10.1916
1.62696
10.1846
1.52755
10.172
1.45365
10.1474
1.40316
10.1073
1.37653
10.049
1.37274
9.97052
1.38838
9.87126
1.41813
9.75199
1.4558
9.61476
1.49561
9.46215
1.533
9.2968
1.56471
9.12109
1.58849
8.93729
1.60231
8.74778
1.60404
8.55541
1.59144
8.36354
1.56255
8.17596
1.51615
7.99645
1.4521
7.82856
1.37141
7.67528
1.27609
7.53888
1.16884
7.42095
1.05279
7.32241
0.931186
7.24357
0.807268
7.18426
0.684161
7.14388
0.564882
7.1214
0.452379
7.11527
0.349565
7.12336
0.259341
7.14282
0.184508
7.17004
0.127527
7.20073
0.0900765
7.23022
0.0725083
7.25413
0.0733456
7.26915
0.0891194
7.27365
0.114808
7.26786
0.144897
7.25355
0.174652
7.23325
0.201065
7.20943
0.223137
7.18391
0.241534
7.15754
0.257875
7.13023
0.273967
7.10122
0.291214
7.06941
0.310297
7.03367
0.331078
6.99308
0.352646
6.94715
0.373452
6.89603
0.391518
6.84049
0.404748
6.7819
0.411275
6.72195
0.409773
6.66242
0.399621
6.60494
0.380887
6.55079
0.35416
6.50092
0.320316
6.45589
0.280276
6.41597
0.234825
6.38126
0.184514
6.35174
0.129621
6.32738
0.0701772
6.30815
0.00599726
6.29405
-0.0632782
6.28505
-0.13816
6.28117
-0.219307
6.28242
-0.307535
6.28878
-0.403855
6.30025
-0.509514
6.31681
-0.626055
6.33847
-0.755384
6.36524
-0.899847
6.39724
-1.06233
6.43471
-1.24638
6.47808
-1.45632
6.52801
-1.6975
6.58553
-1.97648
6.65204
-2.30146
6.72942
-2.68288
6.81999
-3.13441
6.92613
-3.67469
7.04866
-4.33034
7.18082
-5.1416
7.28589
-6.17326
7.20994
-7.53421
6.31007
-9.39197
18.9322
-11.7981
27.0748
-22.7945
21.533
-23.0907
17.306
-13.7376
14.0714
-3.36081
12.7734
4.17277
11.2384
5.49916
6.94625
1.8754
1.53138
0.0595458
2.43414
1.00384
38.0633
1.59075
87.9481
35.7264
85.3276
49.0942
74.4823
52.3698
62.2907
58.588
48.6237
68.8316
32.1061
79.3801
17.9344
79.4358
11.957
68.5171
12.7847
58.3995
26.3153
51.0696
31.5141
40.1381
3.01803
18.9372
-8.77339
10.9381
-2.18138
16.7233
0.25839
17.18
1.15457
16.4461
1.35812
15.5558
1.21452
14.7856
0.887367
14.2042
0.464404
13.821
13.6316
0.431741
6.23198
0.845279
6.14785
1.23032
5.98679
1.58194
5.76019
1.90019
5.48158
2.18866
5.16487
2.45302
4.82312
2.69965
4.46782
2.93483
4.10856
3.1642
3.75301
3.39248
3.40707
3.62362
3.07513
3.86089
2.76031
4.10702
2.46486
4.3644
2.19045
4.63519
1.93858
4.92152
1.7109
5.22534
1.50941
5.54865
1.33685
5.89326
1.19696
6.26077
1.09451
6.65252
1.03558
7.07003
1.02814
7.51574
1.08222
7.99356
1.20921
8.50855
1.41768
9.05699
1.69568
9.58298
1.96076
9.9293
2.04512
10.0309
1.92836
10.0483
1.78198
10.0691
1.67091
10.0922
1.58034
10.1107
1.5024
10.1215
1.44112
10.1208
1.40339
10.1035
1.39362
10.0646
1.41161
10.0003
1.45274
9.90893
1.50943
9.79181
1.57292
9.65214
1.63531
9.49387
1.69125
9.32057
1.73798
9.13492
1.77412
8.93902
1.79818
8.73518
1.80786
8.52651
1.8001
8.31714
1.77193
8.1119
1.72141
7.91576
1.64826
7.73324
1.55395
7.56803
1.44131
7.42283
1.31405
7.29935
1.17627
7.19849
1.03204
7.12046
0.885287
7.06498
0.739628
7.03138
0.598484
7.01859
0.46518
7.02505
0.34311
7.04853
0.235862
7.08584
0.147202
7.13259
0.0807843
7.18316
0.0395209
7.23105
0.024614
7.2699
0.0344907
7.29484
0.0641899
7.30374
0.105923
7.29762
0.151026
7.27997
0.1923
7.25532
0.225701
7.22782
0.250623
7.20025
0.2691
7.17364
0.284482
7.14748
0.300108
7.12031
0.318379
7.0902
0.340411
7.05524
0.366045
7.01388
0.394009
6.96522
0.422102
6.90926
0.447459
6.84702
0.466979
6.7804
0.477905
6.7118
0.478389
6.64369
0.467744
6.57821
0.446368
6.51695
0.415416
6.46088
0.376382
6.41044
0.330725
6.36566
0.279613
6.32636
0.223816
6.29229
0.163698
6.2632
0.0992803
6.23888
0.030333
6.21916
-0.0435481
6.20391
-0.122894
6.19295
-0.208349
6.1861
-0.300693
6.18312
-0.400882
6.18371
-0.510099
6.18748
-0.629823
6.194
-0.761891
6.20275
-0.908592
6.2132
-1.07277
6.22476
-1.25795
6.2369
-1.46846
6.24903
-1.70964
6.26055
-1.988
6.27062
-2.31154
6.27789
-2.69014
6.27971
-3.13622
6.27048
-3.66545
6.2374
-4.29724
6.14916
-5.05334
5.92494
-5.94903
5.35218
-6.96145
3.90389
-7.94367
7.93592
-8.51622
26.7786
-13.2678
30.8861
-10.4391
27.6828
-1.36443
21.605
-0.54507
14.0998
3.65596
7.61461
8.96597
5.1304
16.7687
2.47567
25.9637
3.02106
40.3644
72.199
67.6383
101.316
76.112
88.6032
61.8069
80.7005
60.2726
72.5343
66.7543
59.1722
82.1937
32.1617
106.391
7.01568
104.582
1.83938
73.6934
5.45485
54.784
15.3838
41.1407
10.3132
27.9002
-4.98107
15.3803
-2.98823
13.8816
-1.72467
15.4597
-0.475551
15.9309
0.264303
15.7062
0.587952
15.2321
0.633072
14.7405
0.504226
14.333
0.275027
14.0502
13.9067
0.347612
6.32345
0.684221
6.24485
1.00372
6.09296
1.30333
5.87655
1.58348
5.60669
1.84692
5.2955
2.09772
4.95511
2.34038
4.59693
2.57928
4.23109
2.81826
3.8661
3.06054
3.50872
3.3088
3.16409
3.56544
2.83597
3.83261
2.527
4.11253
2.23924
4.4075
1.97457
4.72003
1.73503
5.05279
1.52325
5.40876
1.34292
5.79081
1.19895
6.20184
1.09803
6.64508
1.04956
7.12411
1.06582
7.64274
1.16086
8.20203
1.34342
8.78654
1.59125
9.32207
1.80252
9.66734
1.84962
9.81255
1.7815
9.88449
1.71728
9.93725
1.66736
9.97849
1.60943
10.0142
1.53875
10.0494
1.46563
10.0837
1.4064
10.111
1.37606
10.1215
1.3831
10.1058
1.42733
10.057
1.50153
9.97241
1.59398
9.8542
1.69117
9.70808
1.78145
9.5406
1.8587
9.35671
1.92185
9.15898
1.97181
8.9487
2.00843
8.72742
2.02912
8.49834
2.02919
8.26662
2.00366
8.03876
1.94928
7.82145
1.86558
7.6206
1.75481
7.44078
1.62115
7.28504
1.4698
7.15513
1.30618
7.05173
1.13544
6.9748
0.962214
6.92384
0.790592
6.89807
0.624253
6.89652
0.466743
6.9178
0.321822
6.95987
0.193792
7.01942
0.0876543
7.09133
0.00888779
7.16825
-0.0373929
7.24093
-0.0480596
7.2996
-0.0241736
7.33657
0.0272374
7.34884
0.0936697
7.33889
0.160976
7.31337
0.217818
7.28024
0.258824
7.2463
0.284563
7.21563
0.299762
7.18926
0.310843
7.16575
0.323603
7.14234
0.341791
7.11583
0.366926
7.0832
0.398678
7.04197
0.435234
6.99058
0.473485
6.92878
0.509245
6.85795
0.537814
6.78088
0.554986
6.70115
0.558131
6.62231
0.54659
6.54726
0.52142
6.47792
0.484758
6.41522
0.439082
6.35933
0.386635
6.30986
0.329091
6.26624
0.267443
6.22787
0.202078
6.19425
0.132919
6.165
0.0596069
6.13982
-0.0183538
6.11845
-0.101521
6.1006
-0.190505
6.08591
-0.286008
6.0739
-0.388878
6.06398
-0.500177
6.05542
-0.621245
6.0473
-0.753765