/*--------------------------------*- C++ -*----------------------------------*\
| =========                 |                                                 |
| \\      /  F ield         | OpenFOAM: The Open Source CFD Toolbox           |
|  \\    /   O peration     | Version:  2.1.0                                 |
|   \\  /    A nd           | Web:      www.OpenFOAM.org                      |
|    \\/     M anipulation  |                                                 |
\*---------------------------------------------------------------------------*/
FoamFile
{
    version     2.0;
    format      ascii;
    class       volScalarField;
    location    "4015";
    object      pw;
}
// * * * * * * * * * * * * * * * * * * * * * * * * * * * * * * * * * * * * * //

dimensions      [1 -1 -2 0 0 0 0];

internalField   nonuniform List<scalar> 
15000
(
7070.86
7052.18
7040.25
7031.04
7023.18
7016.1
7009.52
7003.27
6997.25
6991.39
6985.63
6979.91
6974.2
6968.47
6962.68
6956.81
6950.85
6944.76
6938.54
6932.16
6925.61
6918.88
6911.96
6904.83
6897.48
6889.9
6882.07
6873.99
6865.63
6856.96
6847.96
6838.58
6828.74
6818.36
6807.39
6796.07
6784.96
6774.28
6763.91
6753.77
6743.8
6734.01
6724.38
6714.91
6705.6
6696.44
6687.43
6678.56
6669.84
6661.26
6652.82
6644.5
6636.31
6628.23
6620.26
6612.39
6604.61
6596.91
6589.28
6581.72
6574.21
6566.75
6559.34
6551.97
6544.62
6537.31
6530.02
6522.75
6515.5
6508.28
6501.07
6493.89
6486.73
6479.59
6472.48
6465.4
6458.34
6451.31
6444.3
6437.33
6430.39
6423.49
6416.61
6409.77
6402.96
6396.18
6389.44
6382.71
6376.02
6369.34
6362.69
6356.04
6349.41
6342.78
6336.14
6329.49
6322.82
6316.13
6309.39
6302.61
6295.76
6288.84
6281.82
6274.7
6267.44
6260.04
6252.45
6244.66
6236.64
6228.34
6219.72
6210.75
6201.38
6191.56
6181.24
6170.38
6158.94
6146.89
6134.21
6120.89
6106.92
6092.29
6076.94
6060.8
6043.73
6025.57
6006.14
5985.28
5962.96
5939.31
5914.71
5889.53
5864.1
5838.72
5813.66
5789.2
5765.56
5742.86
5721.19
5700.65
5681.43
5663.76
5647.88
5633.94
5622.05
5612.24
5604.48
5598.73
5594.93
5593.04
7052.15
7044.52
7036.29
7028.59
7021.48
7014.82
7008.51
7002.45
6996.57
6990.81
6985.12
6979.47
6973.82
6968.13
6962.38
6956.55
6950.61
6944.55
6938.35
6931.99
6925.46
6918.74
6911.83
6904.7
6897.35
6889.77
6881.95
6873.86
6865.48
6856.81
6847.78
6838.36
6828.47
6818
6806.97
6795.69
6784.68
6774.07
6763.73
6753.59
6743.63
6733.85
6724.22
6714.75
6705.44
6696.29
6687.28
6678.42
6669.7
6661.13
6652.69
6644.38
6636.19
6628.12
6620.16
6612.3
6604.52
6596.83
6589.21
6581.66
6574.16
6566.71
6559.3
6551.93
6544.59
6537.28
6529.99
6522.73
6515.48
6508.26
6501.05
6493.87
6486.71
6479.57
6472.46
6465.37
6458.31
6451.28
6444.27
6437.3
6430.36
6423.46
6416.58
6409.74
6402.93
6396.15
6389.41
6382.69
6376
6369.33
6362.67
6356.04
6349.41
6342.78
6336.15
6329.51
6322.85
6316.17
6309.44
6302.67
6295.84
6288.93
6281.93
6274.83
6267.59
6260.21
6252.66
6244.9
6236.91
6228.65
6220.08
6211.16
6201.83
6192.06
6181.78
6170.96
6159.55
6147.52
6134.85
6121.54
6107.59
6093
6077.74
6061.72
6044.82
6026.85
6007.57
5986.75
5964.27
5940.28
5915.29
5889.77
5864.05
5838.39
5813.06
5788.37
5764.61
5741.84
5720.06
5699.33
5679.88
5661.99
5645.93
5631.89
5619.97
5610.18
5602.47
5596.77
5593.02
5591.15
7040.15
7036.22
7030.64
7024.57
7018.47
7012.47
7006.6
7000.87
6995.24
6989.67
6984.14
6978.61
6973.06
6967.47
6961.8
6956.03
6950.15
6944.14
6937.98
6931.66
6925.15
6918.46
6911.56
6904.45
6897.1
6889.52
6881.69
6873.58
6865.19
6856.47
6847.4
6837.91
6827.9
6817.31
6806.21
6795.04
6784.19
6773.65
6763.35
6753.24
6743.3
6733.52
6723.9
6714.44
6705.14
6695.98
6686.98
6678.13
6669.42
6660.86
6652.43
6644.14
6635.96
6627.91
6619.96
6612.12
6604.36
6596.69
6589.08
6581.55
6574.06
6566.63
6559.23
6551.87
6544.54
6537.23
6529.95
6522.68
6515.44
6508.21
6501.01
6493.82
6486.66
6479.52
6472.4
6465.31
6458.25
6451.22
6444.21
6437.24
6430.3
6423.39
6416.52
6409.68
6402.87
6396.09
6389.35
6382.64
6375.95
6369.29
6362.65
6356.02
6349.4
6342.79
6336.17
6329.55
6322.91
6316.24
6309.54
6302.79
6295.99
6289.11
6282.15
6275.08
6267.89
6260.56
6253.07
6245.37
6237.45
6229.27
6220.79
6211.96
6202.73
6193.06
6182.87
6172.13
6160.78
6148.78
6136.12
6122.82
6108.9
6094.39
6079.29
6063.52
6046.98
6029.43
6010.54
5989.89
5967.09
5942.23
5916.41
5890.22
5863.94
5837.74
5811.83
5786.61
5762.68
5739.84
5717.86
5696.74
5676.76
5658.38
5641.95
5627.72
5615.77
5606.05
5598.46
5592.88
5589.22
5587.4
7030.84
7028.43
7024.47
7019.71
7014.58
7009.3
7003.97
6998.65
6993.34
6988.03
6982.71
6977.36
6971.96
6966.49
6960.93
6955.27
6949.47
6943.53
6937.44
6931.16
6924.7
6918.04
6911.17
6904.07
6896.73
6889.14
6881.29
6873.16
6864.73
6855.96
6846.8
6837.2
6827.05
6816.3
6805.19
6794.19
6783.5
6773.06
6762.8
6752.72
6742.8
6733.04
6723.43
6713.97
6704.68
6695.53
6686.54
6677.7
6669
6660.45
6652.04
6643.77
6635.62
6627.59
6619.66
6611.84
6604.11
6596.47
6588.89
6581.38
6573.92
6566.5
6559.12
6551.78
6544.46
6537.16
6529.88
6522.62
6515.38
6508.15
6500.95
6493.76
6486.59
6479.45
6472.33
6465.23
6458.17
6451.13
6444.12
6437.14
6430.2
6423.29
6416.42
6409.58
6402.77
6396
6389.27
6382.56
6375.88
6369.23
6362.6
6355.99
6349.39
6342.8
6336.2
6329.6
6322.99
6316.35
6309.68
6302.97
6296.21
6289.38
6282.47
6275.46
6268.34
6261.08
6253.67
6246.07
6238.26
6230.2
6221.84
6213.16
6204.08
6194.56
6184.53
6173.91
6162.65
6150.7
6138.05
6124.72
6110.81
6096.38
6081.49
6066.11
6050.15
6033.35
6015.27
5995.16
5971.99
5945.12
5917.91
5890.77
5863.75
5836.79
5809.91
5783.55
5759.67
5736.99
5714.8
5693.01
5672.03
5652.83
5635.79
5621.27
5609.33
5599.78
5592.43
5587.07
5583.56
5581.84
7022.85
7021.18
7018.23
7014.45
7010.15
7005.54
7000.77
6995.89
6990.95
6985.94
6980.88
6975.75
6970.54
6965.23
6959.82
6954.27
6948.59
6942.74
6936.72
6930.52
6924.11
6917.49
6910.65
6903.56
6896.23
6888.63
6880.76
6872.59
6864.1
6855.25
6845.98
6836.22
6825.88
6815.01
6803.99
6793.2
6782.65
6772.29
6762.09
6752.04
6742.14
6732.4
6722.8
6713.35
6704.06
6694.93
6685.94
6677.11
6668.44
6659.91
6651.52
6643.27
6635.15
6627.15
6619.26
6611.48
6603.79
6596.18
6588.64
6581.16
6573.73
6566.34
6558.98
6551.66
6544.35
6537.07
6529.8
6522.54
6515.3
6508.07
6500.86
6493.67
6486.5
6479.35
6472.22
6465.12
6458.05
6451.01
6443.99
6437.01
6430.07
6423.16
6416.28
6409.44
6402.64
6395.88
6389.15
6382.46
6375.79
6369.16
6362.54
6355.95
6349.37
6342.81
6336.24
6329.67
6323.09
6316.5
6309.87
6303.21
6296.5
6289.73
6282.88
6275.95
6268.92
6261.76
6254.46
6246.98
6239.31
6231.41
6223.24
6214.74
6205.88
6196.57
6186.76
6176.34
6165.22
6153.33
6140.64
6127.21
6113.22
6098.83
6084.18
6069.3
6054.15
6038.54
6022.02
6003.51
5980.6
5948.36
5919.32
5891.19
5863.51
5835.75
5807.49
5778
5755.45
5733.64
5711.35
5688.47
5665.5
5645.14
5627.08
5612.25
5600.49
5591.34
5584.4
5579.39
5576.14
5574.54
7015.59
7014.35
7012.06
7009
7005.38
7001.39
6997.14
6992.71
6988.15
6983.48
6978.7
6973.82
6968.83
6963.71
6958.46
6953.07
6947.51
6941.78
6935.86
6929.74
6923.4
6916.83
6910.02
6902.95
6895.62
6888
6880.09
6871.87
6863.29
6854.33
6844.91
6834.95
6824.41
6813.52
6802.69
6792.09
6781.67
6771.38
6761.23
6751.22
6741.34
6731.6
6722.02
6712.58
6703.29
6694.17
6685.2
6676.38
6667.72
6659.22
6650.86
6642.64
6634.56
6626.6
6618.76
6611.03
6603.38
6595.82
6588.32
6580.88
6573.49
6566.14
6558.82
6551.52
6544.23
6536.96
6529.7
6522.45
6515.21
6507.98
6500.76
6493.57
6486.39
6479.23
6472.1
6464.99
6457.91
6450.86
6443.84
6436.85
6429.9
6422.99
6416.11
6409.27
6402.48
6395.72
6389
6382.32
6375.67
6369.05
6362.46
6355.9
6349.35
6342.81
6336.28
6329.75
6323.22
6316.67
6310.1
6303.49
6296.85
6290.15
6283.39
6276.55
6269.62
6262.58
6255.41
6248.09
6240.6
6232.89
6224.94
6216.7
6208.11
6199.11
6189.59
6179.45
6168.56
6156.77
6143.98
6130.27
6116.02
6101.55
6087.09
6072.75
6058.61
6044.66
6030.75
6016.25
5998.54
5979.23
5928.74
5890.91
5861.59
5829.95
5794.6
5765.52
5750.5
5730.77
5708.49
5684
5656.39
5635.14
5615.15
5600.17
5589.04
5580.67
5574.43
5569.97
5567.07
5565.65
7008.8
7007.82
7006
7003.47
7000.41
6996.95
6993.19
6989.2
6985.02
6980.69
6976.22
6971.61
6966.86
6961.96
6956.9
6951.68
6946.27
6940.68
6934.87
6928.84
6922.57
6916.06
6909.28
6902.23
6894.89
6887.25
6879.29
6870.98
6862.3
6853.18
6843.56
6833.37
6822.7
6811.94
6801.34
6790.89
6780.57
6770.35
6760.24
6750.25
6740.39
6730.66
6721.08
6711.65
6702.37
6693.25
6684.29
6675.49
6666.86
6658.38
6650.06
6641.88
6633.85
6625.94
6618.16
6610.48
6602.89
6595.39
6587.95
6580.57
6573.22
6565.92
6558.63
6551.36
6544.1
6536.84
6529.59
6522.34
6515.1
6507.87
6500.65
6493.44
6486.25
6479.09
6471.94
6464.82
6457.74
6450.68
6443.65
6436.65
6429.7
6422.78
6415.9
6409.06
6402.27
6395.52
6388.81
6382.15
6375.52
6368.92
6362.36
6355.83
6349.31
6342.81
6336.32
6329.84
6323.36
6316.86
6310.35
6303.81
6297.25
6290.63
6283.97
6277.24
6270.43
6263.53
6256.52
6249.38
6242.09
6234.63
6226.94
6219.01
6210.77
6202.14
6193.04
6183.33
6172.8
6161.2
6148.23
6133.87
6119.03
6104.27
6089.87
6076.01
6062.87
6050.72
6040.08
6032.2
6019.64
6021.44
5962.17
5897.46
5847.21
5811.92
5785.87
5763.28
5747.41
5726.95
5701.12
5669.19
5640.92
5623.87
5598.21
5584.24
5574.82
5567.89
5562.7
5558.96
5556.53
5555.33
7002.29
7001.51
7000.02
6997.91
6995.31
6992.31
6988.99
6985.42
6981.62
6977.64
6973.48
6969.16
6964.67
6960
6955.16
6950.13
6944.89
6939.44
6933.76
6927.84
6921.66
6915.2
6908.46
6901.42
6894.07
6886.38
6878.35
6869.93
6861.1
6851.78
6841.91
6831.52
6820.9
6810.36
6799.95
6789.62
6779.37
6769.2
6759.13
6749.16
6739.3
6729.58
6720
6710.57
6701.29
6692.17
6683.22
6674.44
6665.83
6657.39
6649.11
6640.98
6633.01
6625.16
6617.45
6609.84
6602.32
6594.89
6587.52
6580.2
6572.92
6565.67
6558.43
6551.19
6543.96
6536.72
6529.48
6522.23
6514.99
6507.74
6500.51
6493.3
6486.1
6478.92
6471.76
6464.63
6457.53
6450.46
6443.42
6436.42
6429.45
6422.53
6415.65
6408.81
6402.02
6395.28
6388.59
6381.94
6375.33
6368.76
6362.23
6355.73
6349.26
6342.8
6336.36
6329.93
6323.5
6317.07
6310.63
6304.17
6297.69
6291.17
6284.61
6278
6271.33
6264.59
6257.76
6250.82
6243.77
6236.57
6229.2
6221.63
6213.8
6205.66
6197.11
6188.01
6178.12
6166.99
6153.89
6137.94
6121.96
6106.63
6092.12
6078.56
6066.15
6055.28
6046.66
6041.46
6034.87
6028.26
5975.47
5895.96
5835.8
5794.53
5762.68
5737.55
5717.83
5696.78
5681.33
5655.15
5627.93
5593.46
5569.56
5563.76
5558.13
5553.35
5549.52
5546.66
5544.76
5543.81
6995.97
6995.33
6994.09
6992.33
6990.12
6987.52
6984.6
6981.42
6978
6974.36
6970.53
6966.51
6962.29
6957.88
6953.27
6948.44
6943.39
6938.1
6932.56
6926.76
6920.66
6914.28
6907.57
6900.54
6893.15
6885.4
6877.26
6868.69
6859.65
6850.07
6839.97
6829.55
6819.14
6808.8
6798.52
6788.28
6778.09
6767.96
6757.91
6747.95
6738.09
6728.36
6718.77
6709.33
6700.04
6690.93
6681.99
6673.22
6664.64
6656.23
6648
6639.94
6632.03
6624.26
6616.62
6609.1
6601.67
6594.33
6587.04
6579.8
6572.6
6565.41
6558.22
6551.03
6543.82
6536.6
6529.37
6522.12
6514.87
6507.61
6500.37
6493.13
6485.92
6478.73
6471.56
6464.41
6457.3
6450.22
6443.16
6436.15
6429.17
6422.23
6415.35
6408.51
6401.72
6394.99
6388.31
6381.69
6375.11
6368.57
6362.07
6355.61
6349.18
6342.77
6336.39
6330.02
6323.65
6317.29
6310.93
6304.55
6298.16
6291.75
6285.31
6278.83
6272.31
6265.74
6259.1
6252.38
6245.58
6238.68
6231.66
6224.49
6217.15
6209.58
6201.73
6193.49
6184.66
6174.77
6162.37
6142.06
6124.26
6108.15
6093.42
6079.95
6067.88
6057.61
6049.81
6046.09
6042.12
6032.46
5965.38
5875.1
5805.49
5751.97
5711.04
5681.34
5660.68
5645.41
5638
5612.89
5572.24
5543.27
5544.64
5543.12
5540.59
5537.85
5535.37
5533.39
5532.03
5531.33
6989.74
6989.21
6988.19
6986.71
6984.83
6982.6
6980.06
6977.24
6974.18
6970.9
6967.4
6963.68
6959.76
6955.61
6951.25
6946.64
6941.79
6936.68
6931.3
6925.61
6919.62
6913.3
6906.62
6899.58
6892.14
6884.29
6876
6867.22
6857.91
6848.07
6837.9
6827.66
6817.45
6807.26
6797.07
6786.9
6776.75
6766.65
6756.6
6746.63
6736.76
6727
6717.39
6707.93
6698.63
6689.51
6680.57
6671.82
6663.27
6654.9
6646.73
6638.73
6630.9
6623.23
6615.69
6608.27
6600.95
6593.7
6586.52
6579.37
6572.25
6565.14
6558.01
6550.87
6543.7
6536.5
6529.27
6522.02
6514.75
6507.47
6500.21
6492.95
6485.72
6478.51
6471.33
6464.17
6457.04
6449.94
6442.87
6435.83
6428.84
6421.89
6415
6408.16
6401.37
6394.65
6387.99
6381.39
6374.83
6368.33
6361.88
6355.46
6349.08
6342.73
6336.4
6330.09
6323.8
6317.51
6311.23
6304.95
6298.66
6292.36
6286.04
6279.71
6273.34
6266.94
6260.51
6254.03
6247.5
6240.92
6234.27
6227.54
6220.72
6213.79
6206.74
6199.56
6192.27
6185.06
6178.75
6159.82
6132.75
6111.21
6093.91
6079.84
6067.06
6055.83
6048.88
6047.35
6044.91
6006.85
5918.9
5833.57
5759.09
5696.8
5648.18
5616.07
5598.14
5586.18
5573.4
5547.08
5515.57
5512.55
5521.32
5523.5
5523.24
5522.09
5520.73
5519.52
5518.63
5518.17
6983.54
6983.11
6982.27
6981.04
6979.45
6977.55
6975.36
6972.91
6970.21
6967.28
6964.11
6960.72
6957.1
6953.24
6949.13
6944.76
6940.13
6935.21
6929.98
6924.43
6918.54
6912.28
6905.63
6898.56
6891.04
6883.05
6874.54
6865.48
6855.9
6845.97
6835.94
6825.89
6815.82
6805.73
6795.62
6785.5
6775.38
6765.27
6755.21
6745.21
6735.3
6725.51
6715.86
6706.36
6697.04
6687.91
6678.97
6670.23
6661.71
6653.39
6645.28
6637.36
6629.63
6622.06
6614.64
6607.34
6600.14
6593.02
6585.95
6578.92
6571.9
6564.88
6557.83
6550.74
6543.61
6536.43
6529.2
6521.93
6514.63
6507.33
6500.03
6492.75
6485.5
6478.27
6471.07
6463.89
6456.75
6449.63
6442.54
6435.48
6428.47
6421.5
6414.59
6407.75
6400.97
6394.25
6387.61
6381.03
6374.51
6368.05
6361.64
6355.28
6348.95
6342.66
6336.4
6330.16
6323.94
6317.73
6311.54
6305.35
6299.17
6292.99
6286.8
6280.61
6274.4
6268.19
6261.97
6255.73
6249.48
6243.22
6236.95
6230.67
6224.39
6218.12
6211.88
6205.73
6199.81
6194.46
6190.55
6182.62
6155.84
6124.95
6097.27
6075.66
6061.56
6053.95
6048.82
6046.34
6043.32
5971.12
5869.81
5781.2
5700.5
5627.97
5568.8
5536.64
5529.62
5527.78
5522.33
5506.94
5496.63
5501.61
5504.6
5506.32
5506.8
5506.53
5505.95
5505.31
5504.81
5504.53
6977.31
6976.96
6976.28
6975.28
6973.97
6972.39
6970.54
6968.44
6966.1
6963.52
6960.71
6957.65
6954.34
6950.77
6946.94
6942.83
6938.42
6933.7
6928.65
6923.24
6917.45
6911.24
6904.6
6897.48
6889.83
6881.63
6872.84
6863.52
6853.85
6844.04
6834.16
6824.22
6814.24
6804.23
6794.18
6784.09
6773.98
6763.86
6753.76
6743.7
6733.73
6723.87
6714.16
6704.62
6695.27
6686.11
6677.16
6668.43
6659.93
6651.67
6643.63
6635.81
6628.19
6620.75
6613.46
6606.31
6599.25
6592.28
6585.35
6578.46
6571.56
6564.64
6557.68
6550.66
6543.57
6536.4
6529.16
6521.86
6514.53
6507.18
6499.84
6492.53
6485.25
6478
6470.78
6463.59
6456.43
6449.29
6442.17
6435.09
6428.04
6421.05
6414.13
6407.27
6400.49
6393.79
6387.16
6380.62
6374.14
6367.72
6361.36
6355.05
6348.79
6342.56
6336.37
6330.2
6324.06
6317.94
6311.84
6305.76
6299.68
6293.62
6287.56
6281.51
6275.48
6269.45
6263.43
6257.44
6251.47
6245.53
6239.64
6233.81
6228.06
6222.42
6216.94
6211.68
6206.77
6202.4
6199.07
6195.88
6166.28
6126.32
6097.81
6072.01
6052.6
6037.18
6022.86
6005.98
5975.68
5895.01
5808
5720.93
5633.75
5545.78
5462.41
5432.05
5455.93
5473
5481.19
5479.04
5481.25
5487.73
5489.14
5490.39
5491.09
5491.3
5491.21
5490.98
5490.76
5490.63
6970.99
6970.72
6970.19
6969.4
6968.37
6967.09
6965.59
6963.85
6961.87
6959.66
6957.2
6954.48
6951.5
6948.24
6944.7
6940.85
6936.68
6932.18
6927.3
6922.04
6916.35
6910.19
6903.53
6896.31
6888.49
6880.04
6871.04
6861.67
6852.07
6842.32
6832.49
6822.61
6812.7
6802.76
6792.77
6782.72
6772.6
6762.43
6752.25
6742.11
6732.04
6722.09
6712.31
6702.7
6693.3
6684.1
6675.13
6666.4
6657.93
6649.72
6641.76
6634.05
6626.57
6619.28
6612.15
6605.17
6598.29
6591.49
6584.73
6577.99
6571.24
6564.45
6557.59
6550.65
6543.61
6536.45
6529.19
6521.84
6514.43
6507.02
6499.62
6492.27
6484.96
6477.7
6470.47
6463.27
6456.09
6448.92
6441.77
6434.65
6427.57
6420.55
6413.59
6406.71
6399.93
6393.24
6386.64
6380.13
6373.7
6367.34
6361.03
6354.79
6348.59
6342.43
6336.31
6330.22
6324.16
6318.13
6312.13
6306.14
6300.18
6294.24
6288.32
6282.41
6276.54
6270.69
6264.88
6259.12
6253.42
6247.8
6242.27
6236.86
6231.61
6226.56
6221.76
6217.29
6213.19
6209.31
6204.5
6203.32
6178.9
6133.67
6095.66
6061.96
6031.96
6003.76
5974.51
5940.03
5893.31
5825.24
5746.25
5660.77
5567.79
5458.98
5369.15
5351.16
5389.04
5427.09
5451.07
5461.23
5466.95
5472.68
5473.84
5475.01
5475.88
5476.38
5476.59
5476.64
5476.62
5476.59
6964.51
6964.32
6963.94
6963.37
6962.61
6961.65
6960.49
6959.12
6957.53
6955.69
6953.61
6951.25
6948.61
6945.68
6942.43
6938.86
6934.94
6930.65
6925.96
6920.84
6915.25
6909.12
6902.41
6895.06
6887.08
6878.55
6869.57
6860.2
6850.55
6840.74
6830.88
6821.03
6811.2
6801.35
6791.43
6781.41
6771.26
6761.02
6750.72
6740.43
6730.22
6720.15
6710.27
6700.58
6691.11
6681.86
6672.86
6664.12
6655.67
6647.51
6639.65
6632.07
6624.75
6617.64
6610.71
6603.93
6597.25
6590.65
6584.09
6577.53
6570.95
6564.32
6557.59
6550.75
6543.76
6536.61
6529.3
6521.86
6514.35
6506.84
6499.36
6491.96
6484.63
6477.36
6470.14
6462.93
6455.73
6448.53
6441.34
6434.18
6427.04
6419.97
6412.97
6406.07
6399.28
6392.6
6386.03
6379.57
6373.19
6366.89
6360.65
6354.47
6348.34
6342.26
6336.21
6330.21
6324.24
6318.3
6312.39
6306.51
6300.66
6294.84
6289.05
6283.29
6277.57
6271.9
6266.29
6260.75
6255.3
6249.97
6244.78
6239.76
6234.96
6230.44
6226.26
6222.53
6219.39
6217.13
6212.2
6209.44
6182.98
6133.8
6089.21
6048.19
6009.52
5971.4
5931.39
5886.31
5832.3
5766.37
5691
5608.12
5517.65
5416.92
5353.19
5345.06
5358.44
5395.27
5428.45
5445.55
5448.88
5456.87
5458.51
5459.95
5461.02
5461.73
5462.15
5462.38
5462.48
5462.52
6957.83
6957.72
6957.49
6957.14
6956.67
6956.04
6955.25
6954.28
6953.08
6951.65
6949.95
6947.97
6945.69
6943.09
6940.16
6936.87
6933.2
6929.13
6924.63
6919.64
6914.12
6908
6901.25
6893.92
6886.04
6877.61
6868.6
6859.07
6849.2
6839.2
6829.27
6819.45
6809.71
6799.99
6790.19
6780.22
6770.03
6759.66
6749.18
6738.68
6728.26
6718.03
6708.02
6698.25
6688.71
6679.39
6670.32
6661.55
6653.1
6645.01
6637.26
6629.84
6622.71
6615.82
6609.12
6602.58
6596.14
6589.78
6583.44
6577.1
6570.73
6564.28
6557.71
6550.99
6544.07
6536.92
6529.53
6521.96
6514.28
6506.61
6499.03
6491.58
6484.24
6476.99
6469.78
6462.58
6455.37
6448.14
6440.9
6433.67
6426.46
6419.31
6412.25
6405.31
6398.51
6391.85
6385.33
6378.92
6372.61
6366.38
6360.21
6354.11
6348.05
6342.04
6336.08
6330.16
6324.28
6318.43
6312.63
6306.85
6301.11
6295.41
6289.75
6284.13
6278.56
6273.05
6267.62
6262.28
6257.06
6252
6247.11
6242.44
6238.05
6233.98
6230.32
6227.18
6224.71
6223.16
6220.12
6215.02
6184.06
6129.34
6079.2
6032.08
5986.54
5940.94
5893.34
5841.51
5783.2
5716.96
5643.25
5563.06
5477.77
5390.94
5343.37
5338.66
5336.77
5367.1
5409.77
5431.84
5433.03
5440.13
5443.36
5445.27
5446.53
5447.37
5447.91
5448.24
5448.41
5448.49
6950.87
6950.85
6950.78
6950.67
6950.5
6950.24
6949.85
6949.3
6948.54
6947.53
6946.25
6944.67
6942.75
6940.5
6937.88
6934.88
6931.46
6927.61
6923.27
6918.4
6912.95
6906.94
6900.42
6893.36
6885.68
6877.31
6868.19
6858.3
6847.99
6837.61
6827.54
6817.77
6808.21
6798.73
6789.12
6779.23
6768.98
6758.42
6747.66
6736.84
6726.12
6715.67
6705.55
6695.7
6686.07
6676.66
6667.5
6658.65
6650.19
6642.16
6634.55
6627.32
6620.43
6613.8
6607.39
6601.12
6594.96
6588.87
6582.8
6576.71
6570.57
6564.35
6557.99
6551.43
6544.61
6537.47
6529.96
6522.15
6514.2
6506.29
6498.58
6491.08
6483.77
6476.57
6469.42
6462.24
6455.02
6447.75
6440.45
6433.13
6425.82
6418.56
6411.41
6404.41
6397.6
6390.97
6384.5
6378.17
6371.94
6365.8
6359.72
6353.69
6347.71
6341.79
6335.91
6330.07
6324.28
6318.53
6312.83
6307.16
6301.53
6295.94
6290.4
6284.91
6279.48
6274.12
6268.85
6263.69
6258.68
6253.84
6249.22
6244.86
6240.8
6237.11
6233.86
6231.15
6229.1
6227.91
6226.03
6218.55
6179.37
6120.31
6066.15
6014.38
5963.6
5912.48
5859.53
5803.2
5742.03
5675.03
5601.97
5523.09
5439.44
5362.49
5332.51
5332.17
5331.07
5353.54
5395.37
5418.19
5424.54
5427.24
5429.54
5431.25
5432.46
5433.31
5433.88
5434.24
5434.45
5434.54
6943.57
6943.63
6943.75
6943.91
6944.07
6944.22
6944.28
6944.19
6943.91
6943.37
6942.52
6941.35
6939.82
6937.91
6935.6
6932.88
6929.7
6926.04
6921.85
6917.15
6911.98
6906.36
6900.22
6893.48
6886.04
6877.76
6868.54
6857.94
6846.85
6835.71
6825.52
6815.87
6806.64
6797.57
6788.34
6778.62
6768.23
6757.38
6746.22
6734.9
6723.69
6713
6702.8
6692.92
6683.23
6673.69
6664.35
6655.36
6646.85
6638.89
6631.45
6624.48
6617.88
6611.58
6605.49
6599.56
6593.72
6587.94
6582.16
6576.36
6570.51
6564.56
6558.46
6552.14
6545.48
6538.37
6530.7
6522.49
6514.08
6505.79
6497.9
6490.39
6483.17
6476.12
6469.08
6461.95
6454.71
6447.4
6440.01
6432.58
6425.13
6417.71
6410.41
6403.33
6396.51
6389.92
6383.54
6377.31
6371.19
6365.15
6359.17
6353.23
6347.33
6341.48
6335.69
6329.94
6324.24
6318.59
6312.99
6307.43
6301.91
6296.43
6291.01
6285.63
6280.33
6275.1
6269.97
6264.96
6260.12
6255.48
6251.08
6246.96
6243.18
6239.79
6236.86
6234.45
6232.65
6231.61
6230.5
6210.71
6161.74
6106.38
6050.71
5995.71
5941.02
5885.83
5829.1
5769.74
5706.69
5639.15
5566.51
5487.88
5400.66
5337.85
5327.21
5326.68
5327.32
5342.41
5380.89
5405.93
5413.37
5414.75
5416.33
5417.7
5418.76
5419.53
5420.06
5420.39
5420.59
5420.68
6935.83
6935.99
6936.31
6936.77
6937.32
6937.93
6938.5
6938.95
6939.2
6939.17
6938.79
6938.05
6936.9
6935.33
6933.32
6930.84
6927.88
6924.41
6920.51
6916.22
6911.54
6906.38
6900.66
6894.3
6887.25
6879.17
6870.28
6858.05
6845.77
6832.86
6822.96
6813.55
6804.91
6796.58
6788.04
6778.68
6767.94
6756.63
6744.92
6732.86
6720.74
6709.83
6699.72
6689.95
6680.23
6670.5
6660.87
6651.58
6642.96
6635.09
6627.89
6621.25
6615.04
6609.13
6603.45
6597.9
6592.43
6586.99
6581.55
6576.08
6570.54
6564.92
6559.16
6553.17
6546.8
6539.84
6531.99
6523.01
6513.85
6504.88
6496.85
6489.4
6482.42
6475.66
6468.84
6461.76
6454.49
6447.11
6439.63
6432.06
6424.42
6416.75
6409.19
6402
6395.17
6388.67
6382.43
6376.35
6370.37
6364.45
6358.57
6352.72
6346.9
6341.13
6335.41
6329.76
6324.16
6318.61
6313.11
6307.65
6302.24
6296.87
6291.56
6286.3
6281.1
6275.98
6270.96
6266.07
6261.36
6256.87
6252.64
6248.73
6245.18
6242.03
6239.33
6237.13
6235.45
6234.36
6233.43
6206.17
6150.5
6092.75
6034.61
5976.71
5918.93
5860.71
5801.32
5739.95
5675.84
5608.37
5537.05
5461.27
5379.68
5330.01
5323.93
5323.33
5324.58
5339.45
5372.61
5393.64
5400.95
5402.06
5403.33
5404.46
5405.35
5405.99
5406.42
5406.69
5406.85
5406.92
6927.57
6927.84
6928.39
6929.18
6930.18
6931.33
6932.51
6933.59
6934.44
6934.96
6935.09
6934.77
6933.99
6932.74
6930.99
6928.75
6926.04
6922.96
6919.55
6915.78
6911.6
6906.96
6901.74
6895.8
6889.48
6881.38
6875.34
6860.73
6840.71
6826.98
6819.93
6810.47
6802.86
6795.81
6788.57
6780.12
6768.23
6756.29
6743.99
6730.86
6716.6
6705.86
6696.32
6686.91
6677.24
6667.23
6657.05
6647.13
6638.32
6630.61
6623.78
6617.6
6611.88
6606.47
6601.26
6596.16
6591.11
6586.06
6580.97
6575.84
6570.67
6565.43
6560.09
6554.58
6548.71
6542.19
6534.4
6523.71
6513.43
6503.02
6495.22
6487.96
6481.43
6475.24
6468.86
6461.75
6454.39
6446.91
6439.33
6431.61
6423.72
6415.67
6407.61
6400.32
6393.51
6387.17
6381.15
6375.28
6369.49
6363.71
6357.94
6352.17
6346.42
6340.72
6335.08
6329.52
6324.02
6318.58
6313.18
6307.83
6302.52
6297.26
6292.05
6286.89
6281.8
6276.76
6271.82
6267.01
6262.38
6257.99
6253.9
6250.15
6246.77
6243.81
6241.31
6239.28
6237.68
6236.07
6235.19
6203.47
6141.34
6079.52
6018.27
5957.61
5897.27
5836.77
5775.52
5712.9
5648.34
5581.44
5512.05
5440.47
5367.58
5327.01
5322.68
5322.84
5323.93
5328.07
5355.64
5379.47
5387.76
5389.19
5390.48
5391.48
5392.19
5392.66
5392.94
5393.11
5393.19
5393.22
6918.68
6919.07
6919.86
6921.03
6922.56
6924.36
6926.28
6928.11
6929.66
6930.79
6931.43
6931.53
6931.09
6930.12
6928.63
6926.72
6924.48
6921.91
6919.01
6915.75
6912.12
6908.13
6903.54
6897.69
6893.5
6886.31
6877.38
6856.72
6835.78
6822.62
6813.1
6805.53
6800.27
6795.22
6790.3
6784.99
6774.74
6757.98
6738.21
6721.32
6708.92
6700.7
6692.8
6684.14
6674.59
6664.14
6652.95
6641.59
6632.56
6625.25
6619.03
6613.5
6608.42
6603.62
6598.97
6594.38
6589.79
6585.15
6580.44
6575.66
6570.85
6566.03
6561.2
6556.33
6551.3
6545.8
6539.71
6527.17
6510.25
6498.54
6493.06
6485.78
6480.12
6475.02
6469.61
6462.01
6454.4
6446.81
6439.16
6431.33
6423.21
6414.58
6405.25
6398.15
6391.37
6385.36
6379.7
6374.15
6368.59
6362.97
6357.31
6351.6
6345.9
6340.24
6334.68
6329.22
6323.84
6318.5
6313.21
6307.96
6302.75
6297.59
6292.49
6287.43
6282.43
6277.46
6272.55
6267.76
6263.16
6258.82
6254.82
6251.18
6247.94
6245.13
6242.8
6241.03
6239.91
6238.09
6236.2
6200.18
6131.86
6065.73
6001.33
5938.17
5875.77
5813.59
5751.1
5687.79
5623.19
5556.99
5489.24
5420.99
5356.95
5325.54
5322.36
5322.42
5323.1
5325.81
5348.31
5367.89
5373.84
5376.47
5377.92
5378.77
5379.26
5379.51
5379.6
5379.6
5379.57
5379.55
6909.06
6909.56
6910.59
6912.18
6914.32
6916.93
6919.8
6922.56
6924.92
6926.71
6927.86
6928.35
6928.21
6927.55
6926.47
6925.04
6923.3
6921.22
6918.83
6916.09
6913.01
6909.9
6906.58
6901.6
6895.71
6879.92
6862.9
6843.88
6828.53
6816.48
6807.39
6801.25
6797.45
6794.51
6792.42
6788.67
6775.33
6753.49
6731.76
6712.94
6702.06
6695.21
6690.01
6682.28
6672.82
6661.78
6649.01
6633.72
6625.1
6618.8
6613.57
6608.94
6604.67
6600.6
6596.61
6592.61
6588.52
6584.31
6579.96
6575.52
6571.05
6566.63
6562.34
6558.26
6554.33
6550.02
6544.71
6527.02
6505.78
6493.62
6487.58
6481.96
6478.23
6475.11
6472.56
6466.9
6455.51
6445.2
6440.13
6431.09
6418.43
6407.91
6400.65
6395.66
6388.48
6383.18
6378.15
6373.03
6367.74
6362.29
6356.71
6351.04
6345.32
6339.66
6334.18
6328.85
6323.6
6318.38
6313.2
6308.05
6302.94
6297.88
6292.88
6287.93
6283.01
6278.1
6273.16
6268.32
6263.67
6259.31
6255.37
6251.83
6248.68
6245.96
6243.74
6242.11
6241.17
6239.85
6236.63
6194.62
6120.19
6050.21
5983.15
5917.99
5854.04
5790.71
5727.5
5663.96
5599.63
5534.1
5466.91
5397.32
5341.46
5323
5321.96
5322
5322.02
5323.94
5343.93
5361.08
5363.26
5364.93
5365.94
5366.44
5366.58
5366.51
5366.33
5366.13
5365.96
5365.87
6898.58
6899.17
6900.43
6902.42
6905.26
6908.9
6913.05
6917.02
6920.33
6922.8
6924.43
6925.28
6925.52
6925.31
6924.7
6923.73
6922.45
6920.86
6918.99
6916.76
6913.94
6911.89
6908.29
6892.97
6876.17
6855.52
6839.04
6824.55
6812.96
6804.49
6799.36
6797.78
6794.63
6792.96
6792.55
6789.61
6772.6
6744.97
6720.74
6700.42
6685.86
6683.13
6683.27
6678.71
6667.5
6650.75
6632.75
6619.19
6615.31
6611.28
6607.52
6604.03
6600.73
6597.5
6594.27
6590.92
6587.38
6583.61
6579.58
6575.4
6571.2
6567.1
6563.27
6560.02
6557.75
6554.35
6542.46
6518.41
6497.52
6483.55
6475.65
6473.63
6475.75
6474.61
6473.26
6466.82
6452.95
6437.97
6429.72
6422.63
6413.1
6404.56
6395.79
6388.82
6383.69
6380.74
6376.7
6372.07
6367.04
6361.73
6356.21
6350.52
6344.7
6338.88
6333.54
6328.4
6323.31
6318.23
6313.16
6308.1
6303.07
6298.11
6293.21
6288.38
6283.61
6278.77
6273.67
6268.69
6263.89
6259.38
6255.51
6252.09
6249
6246.3
6244.1
6242.5
6241.61
6240.44
6235.71
6183.26
6104.05
6031.78
5963.07
5896.62
5831.68
5767.7
5704.25
5640.91
5577.28
5512.88
5446.97
5378.05
5331.55
5322
5321.49
5321.6
5321.75
5322.84
5337.51
5352.21
5353.2
5354.06
5354.47
5354.45
5354.12
5353.62
5353.09
5352.62
5352.27
5352.08
6887.15
6887.79
6889.17
6891.49
6895.02
6899.97
6906.06
6911.68
6916.07
6919.21
6921.3
6922.6
6923.31
6923.52
6923.31
6922.75
6921.9
6920.8
6919.5
6918.02
6915.72
6910.23
6890.91
6863.88
6844.02
6826.93
6813.21
6802.31
6794.28
6789.15
6787.39
6790.19
6791.45
6791.69
6789.21
6785.85
6765.09
6733.04
6705.8
6680.56
6665.48
6670.97
6673.39
6665.3
6642.74
6619.47
6611.63
6607.35
6605.66
6603.48
6601.2
6598.94
6596.7
6594.42
6592.03
6589.41
6586.48
6583.16
6579.34
6575.32
6571.25
6567.29
6563.64
6560.8
6559.04
6556.74
6538.87
6507.7
6481.65
6461.81
6448.21
6445.19
6455.97
6466.57
6467.17
6455.36
6436.81
6421.09
6414.6
6410.4
6403.81
6398.2
6390.92
6384.73
6381.62
6379.4
6375.85
6371.5
6366.63
6361.39
6355.88
6350.13
6344.08
6337.64
6332.68
6327.89
6323.02
6318.08
6313.1
6308.11
6303.15
6298.26
6293.47
6288.8
6284.26
6279.69
6274.07
6268.87
6263.84
6258.8
6255.22
6252
6248.95
6246.12
6243.87
6242.18
6241.25
6240.19
6217.43
6152.98
6080.98
6009.78
5940.73
5873.72
5808.35
5744.19
5680.88
5618.14
5555.69
5493.18
5430.06
5365.35
5326.23
5320.69
5320.88
5321.17
5321.55
5323.46
5331.52
5342.38
5343.25
5343.64
5343.44
5342.78
5341.82
5340.77
5339.79
5338.98
5338.41
5338.12
6874.75
6875.32
6876.62
6878.97
6882.94
6889.43
6899.03
6907.05
6912.53
6916.27
6918.84
6920.56
6921.62
6922.16
6922.28
6922.06
6921.59
6920.94
6920.2
6917.52
6900.62
6879.91
6851.87
6827.61
6809.08
6794.98
6784.54
6777.21
6772.71
6770.43
6770.88
6776.11
6784.22
6778.58
6778.81
6778.49
6750.83
6716.31
6688.87
6665.14
6654.69
6662.4
6665.37
6646.09
6615.47
6595.17
6596.43
6596.9
6596.51
6595.78
6594.86
6593.83
6592.71
6591.46
6590.02
6588.22
6585.96
6583.21
6579.31
6575.27
6571.2
6567.16
6563.19
6560.51
6558.67
6555.51
6531.57
6491.85
6459.57
6433.84
6413
6403.34
6409.35
6415.31
6433.98
6433.05
6419.84
6411.85
6408.34
6403.93
6398.99
6395.81
6390.85
6385.63
6382.41
6378.53
6374.62
6370.64
6365.4
6359.97
6354.88
6348.91
6341.22
6334.91
6331.67
6327.45
6322.81
6317.98
6313.05
6308.09
6303.16
6298.33
6293.6
6289.08
6284.94
6281.65
6273.9
6269.07
6262.22
6256.77
6254.57
6251.74
6248.67
6245.36
6243.06
6241.12
6240.04
6238.48
6202.7
6130.24
6057.13
5985.62
5916.35
5849.2
5783.8
5719.81
5656.96
5595.1
5534.15
5474.08
5414.72
5355.45
5322.35
5319.39
5320
5320.63
5321.56
5323.34
5326.43
5332.06
5333.77
5333.81
5332.89
5331.39
5329.62
5327.86
5326.32
5325.1
5324.28
5323.87
6861.42
6861.79
6862.67
6864.41
6867.84
6875.08
6892.93
6904.41
6910.45
6914.44
6917.26
6919.21
6920.45
6921.22
6921.58
6921.62
6921.45
6921.18
6906.3
6887.87
6859.94
6834.95
6809.05
6785.61
6769.72
6759.38
6752.75
6749.27
6748.92
6748.98
6749.6
6751.6
6756
6748.52
6750.39
6747.2
6719.55
6692.48
6668.23
6646.59
6636.86
6640.19
6638.74
6621.14
6597.58
6583.7
6583.01
6586.89
6587.68
6588.28
6588.64
6588.81
6588.83
6588.71
6588.36
6587.49
6585.94
6584.4
6580.55
6575.08
6569.9
6565.08
6561.45
6559.39
6556.58
6549.22
6517.16
6468.58
6430.93
6400.99
6375.88
6364.12
6363.91
6355.79
6389.12
6420.74
6412.62
6408.7
6408.4
6403.73
6398.41
6394.48
6391.29
6388.1
6372.85
6360.04
6352.85
6347.11
6341.54
6336.27
6331.17
6325.61
6319.52
6314.35
6310.63
6306.91
6303.26
6300.22