/*--------------------------------*- C++ -*----------------------------------*\
| =========                 |                                                 |
| \\      /  F ield         | OpenFOAM: The Open Source CFD Toolbox           |
|  \\    /   O peration     | Version:  1.6                                   |
|   \\  /    A nd           | Web:      www.OpenFOAM.org                      |
|    \\/     M anipulation  |                                                 |
\*---------------------------------------------------------------------------*/
FoamFile
{
    version     2.0;
    format      ascii;
    class       volScalarField;
    location    "0.5";
    object      T;
}
// * * * * * * * * * * * * * * * * * * * * * * * * * * * * * * * * * * * * * //

dimensions      [0 0 0 0 0 0 0];

internalField   nonuniform List<scalar> 
400
(
4.99303
7.71137
8.62658
9.01542
9.21574
9.33275
9.40566
9.45159
9.47885
9.49161
9.49161
9.47885
9.45159
9.40566
9.33275
9.21574
9.01542
8.62658
7.71137
4.99303
2.24679
4.93725
6.40611
7.23484
7.73059
8.04242
8.24402
8.37349
8.45115
8.48767
8.48767
8.45115
8.37349
8.24402
8.04242
7.73059
7.23484
6.40611
4.93725
2.24679
1.3037
3.38479
4.82587
5.78736
6.42951
6.86249
7.15473
7.3474
7.46481
7.52048
7.52048
7.46481
7.3474
7.15473
6.86248
6.42951
5.78736
4.82588
3.38479
1.3037
0.886926
2.47242
3.72538
4.65943
5.33783
5.82358
6.16531
6.39694
6.54057
6.60933
6.60933
6.54057
6.39694
6.16531
5.82357
5.33783
4.65942
3.72538
2.47242
0.886926
0.65855
1.89272
2.94399
3.78739
4.43915
4.92906
5.28642
5.53495
5.69169
5.76745
5.76745
5.69169
5.53495
5.28642
4.92906
4.43915
3.78739
2.94399
1.89272
0.65855
0.513155
1.49606
2.3707
3.10732
3.70274
4.16755
4.51691
4.76532
4.92438
5.00195
5.00195
4.92438
4.76532
4.5169
4.16755
3.70273
3.10732
2.37069
1.49606
0.513154
0.411216
1.20785
1.93568
2.56883
3.09738
3.52205
3.84894
4.08569
4.23927
4.31474
4.31474
4.23927
4.08569
3.84894
3.52205
3.09738
2.56883
1.93568
1.20785
0.411215
0.335135
0.988625
1.59565
2.13536
2.59641
2.97494
3.27178
3.48997
3.63302
3.70377
3.70378
3.63303
3.48997
3.27178
2.97494
2.59641
2.13536
1.59565
0.988622
0.335134
0.2759
0.816059
1.32325
1.78098
2.1785
2.51016
2.77398
2.97017
3.0999
3.16439
3.1644
3.0999
2.97017
2.77398
2.51016
2.1785
1.78098
1.32325
0.816058
0.2759
0.228375
0.676664
1.10065
1.48727
1.82703
2.11388
2.34454
2.51763
2.63285
2.69037
2.69037
2.63285
2.51763
2.34454
2.11387
1.82702
1.48726
1.10064
0.676662
0.228374
0.18938
0.56178
0.91574
1.24086
1.52902
1.77445
1.97341
2.12375
2.22435
2.27473
2.27473
2.22435
2.12375
1.97341
1.77444
1.52902
1.24086
0.915734
0.561777
0.189378
0.156809
0.465539
0.759996
1.03186
1.27431
1.48214
1.65164
1.78039
1.86689
1.91032
1.91032
1.86689
1.78039
1.65163
1.48212
1.2743
1.03185
0.759988
0.465534
0.156807
0.12919
0.38376
0.627155
0.852705
1.05475
1.22876
1.37132
1.48004
1.5533
1.59014
1.59014
1.55329
1.48003
1.37131
1.22874
1.05473
0.852694
0.627145
0.383754
0.129188
0.105439
0.313334
0.512448
0.697451
0.863706
1.00739
1.12551
1.21584
1.27685
1.30758
1.30757
1.27684
1.21583
1.12549
1.00737
0.86369
0.697438
0.512437
0.313328
0.105437
0.0847253
0.25185
0.412114
0.561302
0.695684
0.812114
0.908061
0.981595
1.03134
1.05643
1.05642
1.03133
0.981584
0.908046
0.812097
0.695667
0.561289
0.412102
0.251843
0.0847224
0.0663837
0.197369
0.323087
0.440274
0.546007
0.637781
0.713544
0.7717
0.811091
0.830968
0.830966
0.811083
0.771688
0.71353
0.637765
0.545991
0.440261
0.323075
0.197361
0.0663807
0.0498639
0.148274
0.242785
0.330965
0.41062
0.479847
0.537068
0.58104
0.61085
0.625901
0.625899
0.610844
0.581031
0.537057
0.479834
0.410607
0.330955
0.242775
0.148268
0.0498621
0.0346935
0.103174
0.168967
0.230393
0.285923
0.334226
0.374185
0.404916
0.425761
0.43629
0.436288
0.425757
0.404909
0.374176
0.334215
0.285912
0.230384
0.168958
0.103168
0.0346921
0.0204531
0.0608281
0.0996287
0.135868
0.168645
0.197171
0.220783
0.238949
0.251277
0.257505
0.257504
0.251274
0.238945
0.220777
0.197165
0.168638
0.135862
0.0996233
0.0608243
0.0204521
0.00675772
0.0200985
0.0329205
0.0448983
0.0557344
0.0651674
0.0729773
0.0789876
0.0830667
0.0851276
0.0851272
0.0830658
0.0789864
0.0729756
0.0651651
0.0557316
0.0448966
0.0329192
0.0200975
0.00675752
)
;

boundaryField
{
    left
    {
        type            fixedValue;
        value           uniform 0;
    }
    down
    {
        type            fixedValue;
        value           uniform 10;
    }
    up
    {
        type            fixedValue;
        value           uniform 0;
    }
    right
    {
        type            fixedValue;
        value           uniform 0;
    }
    frontAndBack
    {
        type            empty;
    }
}


// ************************************************************************* //
