/*--------------------------------*- C++ -*----------------------------------*\
| =========                 |                                                 |
| \\      /  F ield         | OpenFOAM: The Open Source CFD Toolbox           |
|  \\    /   O peration     | Version:  2.1.0                                 |
|   \\  /    A nd           | Web:      www.OpenFOAM.org                      |
|    \\/     M anipulation  |                                                 |
\*---------------------------------------------------------------------------*/
FoamFile
{
    version     2.0;
    format      ascii;
    class       volScalarField;
    location    "20075";
    object      kr_o;
}
// * * * * * * * * * * * * * * * * * * * * * * * * * * * * * * * * * * * * * //

dimensions      [0 0 0 0 0 0 0];

internalField   nonuniform List<scalar> 
8000
(
0.0211277
0.0258871
0.0323451
0.0400644
0.0487213
0.0580662
0.0679185
0.0781114
0.0884724
0.0988489
0.10912
0.119198
0.12903
0.138587
0.147855
0.156829
0.165538
0.174024
0.182331
0.190513
0.198627
0.206741
0.214933
0.223297
0.231953
0.241056
0.250815
0.261521
0.273602
0.287729
0.30496
0.326941
0.355922
0.394038
0.443606
0.499897
0.542176
0.558668
0.562072
0.562477
0.0258865
0.0305811
0.0369164
0.0444843
0.0529869
0.0622015
0.0719547
0.0820702
0.092374
0.102715
0.112971
0.123054
0.132908
0.142503
0.151815
0.160844
0.169623
0.178189
0.186589
0.194875
0.203105
0.211343
0.219667
0.228168
0.236964
0.246205
0.256099
0.266936
0.279164
0.293485
0.311018
0.333476
0.363101
0.401745
0.451131
0.505403
0.544481
0.559165
0.562132
0.562481
0.0323449
0.0369163
0.0430613
0.0504188
0.0587196
0.0677681
0.0773905
0.0874039
0.0976363
0.107936
0.11818
0.128276
0.138163
0.147802
0.157161
0.166252
0.175104
0.183756
0.192253
0.200643
0.208983
0.217334
0.225767
0.234369
0.243246
0.252542
0.262452
0.273269
0.285455
0.299747
0.317318
0.339946
0.369824
0.408521
0.457359
0.509748
0.546261
0.559552
0.562179
0.562483
0.0400643
0.044484
0.0504187
0.0575514
0.0656514
0.0745386
0.084031
0.0939507
0.10413
0.114417
0.124683
0.134828
0.144781
0.154486
0.16392
0.1731
0.182056
0.190826
0.199452
0.207982
0.216467
0.224962
0.233529
0.242242
0.251189
0.260492
0.27033
0.280987
0.292934
0.306936
0.324232
0.346666
0.376365
0.414683
0.462692
0.51331
0.547695
0.559866
0.562218
0.562486
0.0487212
0.0529866
0.0587195
0.0656514
0.0735805
0.0823258
0.0917149
0.101581
0.111763
0.122105
0.132468
0.142736
0.152816
0.162642
0.172211
0.181544
0.190672
0.199633
0.208471
0.217231
0.225957
0.234696
0.243495
0.252403
0.261476
0.2708
0.280521
0.290895
0.302378
0.315763
0.332362
0.354123
0.383119
0.420615
0.467538
0.516442
0.548949
0.560143
0.562253
0.562488
0.0580661
0.0622014
0.067768
0.0745386
0.0823258
0.0909655
0.100305
0.110194
0.120481
0.131005
0.141602
0.152117
0.162422
0.172478
0.182294
0.191897
0.201325
0.210623
0.219836
0.229006
0.238175
0.247374
0.256625
0.265939
0.275326
0.284814
0.294471
0.304473
0.315215
0.327494
0.34274
0.36311
0.390669
0.42683
0.472386
0.519522
0.550183
0.560416
0.562288
0.56249
0.0679184
0.0719546
0.0773904
0.0840309
0.0917148
0.100305
0.109677
0.11971
0.130271
0.141198
0.15227
0.163228
0.173954
0.184431
0.194689
0.204775
0.214743
0.22465
0.234548
0.244483
0.254489
0.264578
0.274744
0.284956
0.295152
0.305235
0.315103
0.324723
0.334308
0.344604
0.357255
0.374947
0.399912
0.434054
0.477855
0.522979
0.551556
0.560713
0.562324
0.562492
0.0781112
0.08207
0.0874038
0.0939505
0.101581
0.110194
0.11971
0.130061
0.14117
0.152892
0.164889
0.176691
0.188193
0.199434
0.210498
0.221475
0.232453
0.243513
0.254725
0.26614
0.277799
0.289723
0.301891
0.314207
0.326455
0.338259
0.34909
0.35839
0.365891
0.372181
0.379391
0.391718
0.41222
0.443288
0.484713
0.527266
0.553198
0.56105
0.562363
0.562494
0.0884723
0.0923739
0.0976361
0.10413
0.111763
0.120481
0.130271
0.14117
0.15325
0.166525
0.180652
0.19414
0.207113
0.219822
0.232484
0.245278
0.258355
0.271845
0.285874
0.300571
0.316048
0.332354
0.349377
0.366723
0.383612
0.398975
0.41144
0.419478
0.422009
0.419352
0.414606
0.416232
0.429245
0.455604
0.493702
0.532725
0.55514
0.561416
0.562403
0.562496
0.0988487
0.102715
0.107936
0.114417
0.122105
0.131005
0.141198
0.152892
0.166525
0.183161
0.204692
0.221977
0.238312
0.254638
0.271486
0.289293
0.308479
0.329439
0.352426
0.377314
0.40327
0.42882
0.452668
0.473487
0.490285
0.502534
0.509896
0.511729
0.506445
0.491436
0.466555
0.448985
0.450838
0.471145
0.505046
0.539289
0.557235
0.561773
0.562438
0.562497
0.109119
0.112971
0.11818
0.124683
0.132468
0.141602
0.15227
0.164889
0.180652
0.204693
0.526408
0.537514
0.536991
0.538151
0.540281
0.54293
0.545815
0.548723
0.55148
0.553945
0.556023
0.557682
0.558939
0.559843
0.560457
0.560833
0.560995
0.560902
0.560339
0.55841
0.477767
0.466916
0.469425
0.487581
0.5178
0.546215
0.559166
0.562069
0.562465
0.562499
0.119198
0.123054
0.128276
0.134827
0.142736
0.152117
0.163228
0.176691
0.19414
0.221977
0.537514
0.56144
0.561874
0.561884
0.561937
0.562016
0.562103
0.562187
0.562261
0.562323
0.562371
0.562407
0.562433
0.56245
0.562462
0.562468
0.562471
0.562467
0.562454
0.562413
0.490628
0.48301
0.486933
0.50418
0.530684
0.552417
0.560645
0.562274
0.562482
0.562499
0.129029
0.132908
0.138163
0.144781
0.152816
0.162421
0.173953
0.188193
0.207113
0.238312
0.536991
0.561874
0.56248
0.562489
0.56249
0.562491
0.562493
0.562495
0.562496
0.562497
0.562498
0.562498
0.562499
0.562499
0.562499
0.562499
0.5625
0.562499
0.562499
0.562499
0.504294
0.498849
0.503961
0.520306
0.542317
0.557057
0.561589
0.562395
0.562492
0.5625
0.138587
0.142502
0.147802
0.154486
0.162642
0.172478
0.184431
0.199434
0.219822
0.254638
0.538151
0.561884
0.562489
0.5625
0.5625
0.5625
0.5625
0.5625
0.5625
0.5625
0.5625
0.5625
0.5625
0.5625
0.5625
0.5625
0.5625
0.5625
0.5625
0.5625
0.518002
0.514378
0.520267
0.534988
0.551404
0.559931
0.5621
0.562456
0.562497
0.5625
0.147855
0.151814
0.157161
0.16392
0.172211
0.182294
0.194689
0.210498
0.232484
0.271486
0.540281
0.561937
0.56249
0.5625
0.5625
0.5625
0.5625
0.5625
0.5625
0.5625
0.5625
0.5625
0.5625
0.5625
0.5625
0.5625
0.5625
0.5625
0.5625
0.5625
0.531008
0.529016
0.53505
0.546933
0.557281
0.561423
0.562341
0.562483
0.562499
0.5625
0.156829
0.160844
0.166252
0.1731
0.181544
0.191897
0.204775
0.221474
0.245278
0.289293
0.54293
0.562016
0.562491
0.5625
0.5625
0.5625
0.5625
0.5625
0.5625
0.5625
0.5625
0.5625
0.5625
0.5625
0.5625
0.5625
0.5625
0.5625
0.5625
0.5625
0.542458
0.541802
0.547069
0.555067
0.560367
0.562091
0.562441
0.562494
0.5625
0.5625
0.165538
0.169622
0.175104
0.182056
0.190671
0.201325
0.214743
0.232453
0.258355
0.308479
0.545815
0.562103
0.562493
0.5625
0.5625
0.5625
0.5625
0.5625
0.5625
0.5625
0.5625
0.5625
0.5625
0.5625
0.5625
0.5625
0.5625
0.5625
0.5625
0.5625
0.551391
0.55155
0.555219
0.559486
0.56172
0.562356
0.56248
0.562498
0.5625
0.5625
0.174024
0.178189
0.183756
0.190825
0.199633
0.210623
0.22465
0.243513
0.271845
0.329439
0.548723
0.562187
0.562495
0.5625
0.5625
0.5625
0.5625
0.5625
0.5625
0.5625
0.5625
0.5625
0.5625
0.5625
0.5625
0.5625
0.5625
0.5625
0.5625
0.5625
0.557229
0.557621
0.559598
0.561425
0.562237
0.562453
0.562493
0.562499
0.5625
0.5625
0.182331
0.186589
0.192252
0.199452
0.208471
0.219835
0.234548
0.254725
0.285874
0.352426
0.55148
0.562261
0.562496
0.5625
0.5625
0.5625
0.5625
0.5625
0.5625
0.5625
0.5625
0.5625
0.5625
0.5625
0.5625
0.5625
0.5625
0.5625
0.5625
0.5625
0.560335
0.560633
0.561486
0.56215
0.562417
0.562485
0.562498
0.5625
0.5625
0.5625
0.190513
0.194875
0.200643
0.207982
0.21723
0.229006
0.244483
0.26614
0.300571
0.377314
0.553945
0.562323
0.562497
0.5625
0.5625
0.5625
0.5625
0.5625
0.5625
0.5625
0.5625
0.5625
0.5625
0.5625
0.5625
0.5625
0.5625
0.5625
0.5625
0.5625
0.561708
0.561863
0.562177
0.562393
0.562475
0.562495
0.562499
0.5625
0.5625
0.5625
0.198627
0.203105
0.208983
0.216467
0.225957
0.238175
0.254489
0.277799
0.316048
0.40327
0.556023
0.562371
0.562498
0.5625
0.5625
0.5625
0.5625
0.5625
0.5625
0.5625
0.5625
0.5625
0.5625
0.5625
0.5625
0.5625
0.5625
0.5625
0.5625
0.5625
0.562234
0.562299
0.562404
0.562469
0.562493
0.562499
0.5625
0.5625
0.5625
0.5625
0.206741
0.211343
0.217334
0.224962
0.234696
0.247374
0.264578
0.289723
0.332354
0.42882
0.557682
0.562407
0.562498
0.5625
0.5625
0.5625
0.5625
0.5625
0.5625
0.5625
0.5625
0.5625
0.5625
0.5625
0.5625
0.5625
0.5625
0.5625
0.5625
0.5625
0.562416
0.56244
0.562472
0.562491
0.562498
0.5625
0.5625
0.5625
0.5625
0.5625
0.214933
0.219666
0.225767
0.233529
0.243495
0.256625
0.274744
0.301891
0.349377
0.452668
0.558939
0.562433
0.562499
0.5625
0.5625
0.5625
0.5625
0.5625
0.5625
0.5625
0.5625
0.5625
0.5625
0.5625
0.5625
0.5625
0.5625
0.5625
0.5625
0.5625
0.562475
0.562483
0.562492
0.562498
0.562499
0.5625
0.5625
0.5625
0.5625
0.5625
0.223297
0.228168
0.234368
0.242242
0.252403
0.265938
0.284956
0.314207
0.366723
0.473487
0.559843
0.56245
0.562499
0.5625
0.5625
0.5625
0.5625
0.5625
0.5625
0.5625
0.5625
0.5625
0.5625
0.5625
0.5625
0.5625
0.5625
0.5625
0.5625
0.5625
0.562493
0.562495
0.562498
0.562499
0.5625
0.5625
0.5625
0.5625
0.5625
0.5625
0.231953
0.236964
0.243246
0.251189
0.261476
0.275326
0.295152
0.326455
0.383612
0.490285
0.560457
0.562462
0.562499
0.5625
0.5625
0.5625
0.5625
0.5625
0.5625
0.5625
0.5625
0.5625
0.5625
0.5625
0.5625
0.5625
0.5625
0.5625
0.5625
0.5625
0.562498
0.562499
0.562499
0.5625
0.5625
0.5625
0.5625
0.5625
0.5625
0.5625
0.241056
0.246205
0.252542
0.260492
0.2708
0.284814
0.305235
0.338259
0.398975
0.502534
0.560833
0.562468
0.562499
0.5625
0.5625
0.5625
0.5625
0.5625
0.5625
0.5625
0.5625
0.5625
0.5625
0.5625
0.5625
0.5625
0.5625
0.5625
0.5625
0.5625
0.562499
0.5625
0.5625
0.5625
0.5625
0.5625
0.5625
0.5625
0.5625
0.5625
0.250815
0.256099
0.262452
0.270329
0.280521
0.294471
0.315103
0.34909
0.41144
0.509896
0.560995
0.562471
0.5625
0.5625
0.5625
0.5625
0.5625
0.5625
0.5625
0.5625
0.5625
0.5625
0.5625
0.5625
0.5625
0.5625
0.5625
0.5625
0.5625
0.5625
0.5625
0.5625
0.5625
0.5625
0.5625
0.5625
0.5625
0.5625
0.5625
0.5625
0.261521
0.266936
0.273269
0.280987
0.290895
0.304472
0.324723
0.35839
0.419478
0.511729
0.560902
0.562467
0.562499
0.5625
0.5625
0.5625
0.5625
0.5625
0.5625
0.5625
0.5625
0.5625
0.5625
0.5625
0.5625
0.5625
0.5625
0.5625
0.5625
0.5625
0.5625
0.5625
0.5625
0.5625
0.5625
0.5625
0.5625
0.5625
0.5625
0.5625
0.273602
0.279164
0.285455
0.292934
0.302378
0.315214
0.334308
0.365891
0.422009
0.506445
0.560339
0.562454
0.562499
0.5625
0.5625
0.5625
0.5625
0.5625
0.5625
0.5625
0.5625
0.5625
0.5625
0.5625
0.5625
0.5625
0.5625
0.5625
0.5625
0.5625
0.5625
0.5625
0.5625
0.5625
0.5625
0.5625
0.5625
0.5625
0.5625
0.5625
0.287728
0.293485
0.299746
0.306936
0.315762
0.327493
0.344604
0.372181
0.419352
0.491436
0.55841
0.562413
0.562499
0.5625
0.5625
0.5625
0.5625
0.5625
0.5625
0.5625
0.5625
0.5625
0.5625
0.5625
0.5625
0.5625
0.5625
0.5625
0.5625
0.5625
0.5625
0.5625
0.5625
0.5625
0.5625
0.5625
0.5625
0.5625
0.5625
0.5625
0.30496
0.311018
0.317318
0.324232
0.332362
0.34274
0.357254
0.379391
0.414606
0.466554
0.477767
0.490628
0.504294
0.518002
0.531008
0.542458
0.551391
0.557229
0.560335
0.561708
0.562234
0.562416
0.562475
0.562493
0.562498
0.562499
0.5625
0.5625
0.5625
0.5625
0.5625
0.5625
0.5625
0.5625
0.5625
0.5625
0.5625
0.5625
0.5625
0.5625
0.326941
0.333476
0.339946
0.346665
0.354123
0.36311
0.374947
0.391718
0.416232
0.448985
0.466916
0.48301
0.498849
0.514378
0.529016
0.541802
0.55155
0.557621
0.560633
0.561863
0.562299
0.56244
0.562483
0.562495
0.562499
0.5625
0.5625
0.5625
0.5625
0.5625
0.5625
0.5625
0.5625
0.5625
0.5625
0.5625
0.5625
0.5625
0.5625
0.5625
0.355922
0.363101
0.369824
0.376364
0.383119
0.390669
0.399912
0.41222
0.429245
0.450838
0.469425
0.486933
0.503961
0.520266
0.53505
0.547068
0.555219
0.559598
0.561486
0.562177
0.562404
0.562472
0.562492
0.562498
0.562499
0.5625
0.5625
0.5625
0.5625
0.5625
0.5625
0.5625
0.5625
0.5625
0.5625
0.5625
0.5625
0.5625
0.5625
0.5625
0.394038
0.401744
0.40852
0.414683
0.420615
0.426829
0.434054
0.443288
0.455604
0.471145
0.487581
0.50418
0.520306
0.534988
0.546933
0.555067
0.559486
0.561425
0.56215
0.562393
0.562469
0.562491
0.562498
0.562499
0.5625
0.5625
0.5625
0.5625
0.5625
0.5625
0.5625
0.5625
0.5625
0.5625
0.5625
0.5625
0.5625
0.5625
0.5625
0.5625
0.443606
0.451131
0.457359
0.462692
0.467538
0.472386
0.477855
0.484713
0.493702
0.505046
0.517799
0.530684
0.542316
0.551404
0.557281
0.560367
0.56172
0.562237
0.562417
0.562475
0.562493
0.562498
0.562499
0.5625
0.5625
0.5625
0.5625
0.5625
0.5625
0.5625
0.5625
0.5625
0.5625
0.5625
0.5625
0.5625
0.5625
0.5625
0.5625
0.5625
0.499897
0.505403
0.509748
0.51331
0.516442
0.519522
0.522979
0.527266
0.532724
0.539289
0.546214
0.552417
0.557057
0.559931
0.561423
0.562091
0.562356
0.562453
0.562485
0.562495
0.562499
0.5625
0.5625
0.5625
0.5625
0.5625
0.5625
0.5625
0.5625
0.5625
0.5625
0.5625
0.5625
0.5625
0.5625
0.5625
0.5625
0.5625
0.5625
0.5625
0.542176
0.544481
0.546261
0.547695
0.548949
0.550183
0.551556
0.553198
0.55514
0.557235
0.559166
0.560645
0.561589
0.5621
0.562341
0.562441
0.56248
0.562493
0.562498
0.562499
0.5625
0.5625
0.5625
0.5625
0.5625
0.5625
0.5625
0.5625
0.5625
0.5625
0.5625
0.5625
0.5625
0.5625
0.5625
0.5625
0.5625
0.5625
0.5625
0.5625
0.558668
0.559165
0.559552
0.559866
0.560143
0.560416
0.560713
0.56105
0.561416
0.561773
0.562069
0.562274
0.562395
0.562456
0.562483
0.562494
0.562498
0.562499
0.5625
0.5625
0.5625
0.5625
0.5625
0.5625
0.5625
0.5625
0.5625
0.5625
0.5625
0.5625
0.5625
0.5625
0.5625
0.5625
0.5625
0.5625
0.5625
0.5625
0.5625
0.5625
0.562072
0.562132
0.562179
0.562218
0.562253
0.562288
0.562324
0.562363
0.562403
0.562438
0.562465
0.562482
0.562492
0.562497
0.562499
0.5625
0.5625
0.5625
0.5625
0.5625
0.5625
0.5625
0.5625
0.5625
0.5625
0.5625
0.5625
0.5625
0.5625
0.5625
0.5625
0.5625
0.5625
0.5625
0.5625
0.5625
0.5625
0.5625
0.5625
0.5625
0.562477
0.562481
0.562483
0.562486
0.562488
0.56249
0.562492
0.562494
0.562496
0.562497
0.562499
0.562499
0.5625
0.5625
0.5625
0.5625
0.5625
0.5625
0.5625
0.5625
0.5625
0.5625
0.5625
0.5625
0.5625
0.5625
0.5625
0.5625
0.5625
0.5625
0.5625
0.5625
0.5625
0.5625
0.5625
0.5625
0.5625
0.5625
0.5625
0.5625
0.00639052
0.00988057
0.0151504
0.0218991
0.0297881
0.0384906
0.0477343
0.0573003
0.0670257
0.0767749
0.086416
0.0958465
0.105
0.113844
0.122378
0.130623
0.138584
0.14629
0.153774
0.161071
0.168224
0.175275
0.182271
0.189268
0.196325
0.203519
0.210938
0.218696
0.226935
0.23583
0.245618
0.256688
0.270039
0.288743
0.318793
0.371385
0.455377
0.531746
0.558452
0.562271
0.00987948
0.0136441
0.0190685
0.0258533
0.0337
0.0423269
0.0514907
0.0609928
0.0706813
0.0804084
0.0900377
0.0994655
0.108624
0.117481
0.126041
0.134312
0.142304
0.150042
0.157559
0.164889
0.172069
0.179141
0.186147
0.193137
0.200168
0.207308
0.214643
0.222282
0.230367
0.239073
0.248639
0.259466
0.272617
0.291362
0.321895
0.375725
0.460502
0.534269
0.558874
0.562298
0.0151503
0.0190684
0.0245456
0.0312906
0.0390338
0.047533
0.0565768
0.0659918
0.0756255
0.0853164
0.0949237
0.10434
0.113497
0.122363
0.130944
0.139233
0.147243
0.154999
0.162528
0.169863
0.177037
0.184086
0.191045
0.197957
0.204872
0.21185
0.218974
0.226348
0.234116
0.24246
0.251628
0.262043
0.274848
0.293512
0.324376
0.379235
0.464671
0.536293
0.559215
0.56232
0.0218994
0.025853
0.0312904
0.0379301
0.0455311
0.0538826
0.0628052
0.0721448
0.0817327
0.0914001
0.101001
0.110421
0.119591
0.128487
0.137095
0.145407
0.153438
0.161209
0.168745
0.176075
0.183225
0.190222
0.197095
0.203875
0.2106
0.217321
0.22411
0.231069
0.238343
0.24613
0.254701
0.264518
0.276833
0.29529
0.326349
0.382095
0.468153
0.537986
0.559502
0.562339
0.0297882
0.0336996
0.0390336
0.045531
0.0529774
0.0611936
0.0700301
0.0793265
0.0889061
0.0985953
0.108238
0.11771
0.126943
0.135907
0.144568
0.152928
0.161
0.168805
0.176364
0.183699
0.190829
0.197772
0.204543
0.211158
0.21764
0.224022
0.230358
0.23674
0.243317
0.250309
0.258036
0.267037
0.278709
0.296837
0.327992
0.38458
0.471319
0.539543
0.55977
0.562357
0.0384904
0.0423266
0.0475329
0.0538827
0.0611936
0.0693209
0.0781197
0.0874286
0.0970748
0.106878
0.116662
0.126286
0.135676
0.144765
0.153535
0.161993
0.170154
0.178038
0.185662
0.193041
0.200186
0.2071
0.213785
0.220237
0.226451
0.232431
0.238202
0.243833
0.249469
0.255364
0.261923
0.269831
0.280702
0.298372
0.329576
0.387109
0.47468
0.541192
0.56005
0.562375
0.0477341
0.0514905
0.0565768
0.0628053
0.0700302
0.0781198
0.0869408
0.096352
0.106195
0.116284
0.126408
0.136373
0.14604
0.15536
0.164334
0.172979
0.181314
0.189361
0.197132
0.204636
0.211873
0.218834
0.225499
0.231837
0.237807
0.243367
0.24849
0.253194
0.257601
0.261998
0.266928
0.273353
0.283223
0.300269
0.33154
0.390325
0.478935
0.543184
0.560372
0.562395
0.0573002
0.0609928
0.065992
0.072145
0.0793267
0.0874287
0.096352
0.105998
0.116254
0.126959
0.13784
0.14843
0.158588
0.168314
0.177649
0.186633
0.195299
0.203668
0.21175
0.219546
0.227045
0.234225
0.241045
0.247447
0.253348
0.258643
0.26321
0.266947
0.269848
0.272161
0.274616
0.27884
0.287154
0.303226
0.334611
0.395214
0.484981
0.545744
0.560752
0.562418
0.0670256
0.0706814
0.0756257
0.0817329
0.0889063
0.0970749
0.106195
0.116254
0.127279
0.139287
0.151878
0.163643
0.17466
0.185106
0.195115
0.204774
0.214136
0.223229
0.232059
0.240622
0.24891
0.256918
0.264639
0.272056
0.279091
0.285446
0.290627
0.294025
0.295044
0.293555
0.290649
0.289872
0.2945
0.308552
0.339995
0.403258
0.493814
0.548961
0.56118
0.562441
0.0767748
0.0804086
0.0853166
0.0914004
0.0985955
0.106878
0.116284
0.12696
0.139287
0.154045
0.172385
0.1865
0.199235
0.211303
0.22303
0.234601
0.24613
0.257675
0.269286
0.28108
0.29335
0.306465
0.320364
0.334891
0.349588
0.363404
0.374458
0.379956
0.376509
0.361607
0.337273
0.316209
0.309255
0.318259
0.349414
0.416416
0.506035
0.552614
0.561605
0.562462
0.0864159
0.0900379
0.0949239
0.101001
0.108238
0.116662
0.126408
0.13784
0.151878
0.172385
0.510839
0.52347
0.520494
0.519908
0.520808
0.522631
0.52507
0.527923
0.531041
0.534301
0.537591
0.540794
0.543788
0.546452
0.548656
0.55025
0.551015
0.550497
0.547422
0.537265
0.346198
0.329055
0.321972
0.330235
0.363616
0.436184
0.52084
0.556134
0.561965
0.562479
0.0958465
0.0994656
0.104341
0.110422
0.11771
0.126286
0.136373
0.14843
0.163643
0.186501
0.52347
0.560265
0.56106
0.560959
0.560955
0.561027
0.561147
0.561293
0.561451
0.561608
0.561756
0.561889
0.562002
0.562093
0.562161
0.562205
0.56222
0.562194
0.562085
0.561774
0.356629
0.340526
0.334671
0.344932
0.383917
0.46278
0.535724
0.558923
0.562219
0.562489
0.105
0.108624
0.113497
0.119591
0.126943
0.135676
0.14604
0.158588
0.17466
0.199235
0.520494
0.56106
0.562442
0.562466
0.562465
0.562466
0.562469
0.562473
0.562477
0.562481
0.562485
0.562488
0.56249
0.562492
0.562494
0.562495
0.562495
0.562495
0.562493
0.562488
0.368862
0.353096
0.349325
0.364172
0.412226
0.493599
0.547754
0.560739
0.562369
0.562495
0.113843
0.117481
0.122363
0.128487
0.135907
0.144765
0.15536
0.168314
0.185106
0.211303
0.519908
0.560959
0.562466
0.562499
0.562499
0.562499
0.562499
0.5625
0.5625
0.5625
0.5625
0.5625
0.5625
0.5625
0.5625
0.5625
0.5625
0.5625
0.5625
0.5625
0.383813
0.368559
0.368254
0.390681
0.449191
0.522476
0.555513
0.56173
0.562445
0.562498
0.122378
0.126041
0.130944
0.137095
0.144568
0.153535
0.164334
0.177649
0.195115
0.22303
0.520808
0.560955
0.562465
0.562499
0.5625
0.5625
0.5625
0.5625
0.5625
0.5625
0.5625
0.5625
0.5625
0.5625
0.5625
0.5625
0.5625
0.5625
0.5625
0.5625
0.403183
0.389262
0.394408
0.426871
0.490338
0.543244
0.559591
0.562195
0.562479
0.562499
0.130623
0.134312
0.139233
0.145407
0.152928
0.161993
0.172979
0.186633
0.204774
0.234602
0.522631
0.561027
0.562466
0.562499
0.5625
0.5625
0.5625
0.5625
0.5625
0.5625
0.5625
0.5625
0.5625
0.5625
0.5625
0.5625
0.5625
0.5625
0.5625
0.5625
0.429123
0.41793
0.430279
0.470954
0.525439
0.554655
0.561408
0.562389
0.562492
0.5625
0.138584
0.142304
0.147243
0.153438
0.161
0.170154
0.181314
0.195299
0.214136
0.24613
0.52507
0.561147
0.562469
0.562499
0.5625
0.5625
0.5625
0.5625
0.5625
0.5625
0.5625
0.5625
0.5625
0.5625
0.5625
0.5625
0.5625
0.5625
0.5625
0.5625
0.462387
0.455524
0.473963
0.512962
0.54714
0.559677
0.562121
0.562462
0.562497
0.5625
0.14629
0.150042
0.154999
0.161209
0.168805
0.178038
0.189361
0.203668
0.223229
0.257675
0.527923
0.561293
0.562473
0.5625
0.5625
0.5625
0.5625
0.5625
0.5625
0.5625
0.5625
0.5625
0.5625
0.5625
0.5625
0.5625
0.5625
0.5625
0.5625
0.5625
0.498977
0.496898
0.515286
0.541463
0.557106
0.561568
0.562377
0.562488
0.562499
0.5625
0.153773
0.157559
0.162528
0.168745
0.176364
0.185662
0.197132
0.21175
0.232059
0.269286
0.531041
0.561451
0.562477
0.5625
0.5625
0.5625
0.5625
0.5625
0.5625
0.5625
0.5625
0.5625
0.5625
0.5625
0.5625
0.5625
0.5625
0.5625
0.5625
0.5625
0.52997
0.530805
0.542875
0.555184
0.560794
0.56221
0.562462
0.562496
0.5625
0.5625
0.161071
0.164889
0.169863
0.176075
0.183699
0.193041
0.204636
0.219546
0.240622
0.28108
0.534301
0.561608
0.562481
0.5625
0.5625
0.5625
0.5625
0.5625
0.5625
0.5625
0.5625
0.5625
0.5625
0.5625
0.5625
0.5625
0.5625
0.5625
0.5625
0.5625
0.549042
0.550329
0.555831
0.560253
0.561992
0.562413
0.562488
0.562499
0.5625
0.5625
0.168224
0.172069
0.177037
0.183225
0.190829
0.200186
0.211873
0.227045
0.24891
0.29335
0.537591
0.561756
0.562485
0.5625
0.5625
0.5625
0.5625
0.5625
0.5625
0.5625
0.5625
0.5625
0.5625
0.5625
0.5625
0.5625
0.5625
0.5625
0.5625
0.5625
0.557756
0.558523
0.560491
0.561854
0.562354
0.562475
0.562497
0.5625
0.5625
0.5625
0.175275
0.179141
0.184086
0.190222
0.197772
0.2071
0.218834
0.234224
0.256918
0.306465
0.540794
0.561889
0.562488
0.5625
0.5625
0.5625
0.5625
0.5625
0.5625
0.5625
0.5625
0.5625
0.5625
0.5625
0.5625
0.5625
0.5625
0.5625
0.5625
0.5625
0.560981
0.561311
0.561931
0.56232
0.562459
0.562493
0.562499
0.5625
0.5625
0.5625
0.182271
0.186147
0.191045
0.197095
0.204543
0.213785
0.225499
0.241045
0.264639
0.320364
0.543788
0.562002
0.56249
0.5625
0.5625
0.5625
0.5625
0.5625
0.5625
0.5625
0.5625
0.5625
0.5625
0.5625
0.5625
0.5625
0.5625
0.5625
0.5625
0.5625
0.56204
0.562161
0.562344
0.562451
0.562489
0.562498
0.5625
0.5625
0.5625
0.5625
0.189267
0.193137
0.197957
0.203875
0.211158
0.220237
0.231837
0.247447
0.272056
0.334891
0.546452
0.562093
0.562492
0.5625
0.5625
0.5625
0.5625
0.5625
0.5625
0.5625
0.5625
0.5625
0.5625
0.5625
0.5625
0.5625
0.5625
0.5625
0.5625
0.5625
0.562366
0.562406
0.562458
0.562487
0.562497
0.562499
0.5625
0.5625
0.5625
0.5625
0.196325
0.200168
0.204872
0.2106
0.21764
0.226451
0.237807
0.253348
0.279091
0.349588
0.548656
0.562161
0.562494
0.5625
0.5625
0.5625
0.5625
0.5625
0.5625
0.5625
0.5625
0.5625
0.5625
0.5625
0.5625
0.5625
0.5625
0.5625
0.5625
0.5625
0.562462
0.562475
0.562489
0.562496
0.562499
0.5625
0.5625
0.5625
0.5625
0.5625
0.203519
0.207308
0.21185
0.217321
0.224022
0.232431
0.243367
0.258643
0.285446
0.363403
0.55025
0.562205
0.562495
0.5625
0.5625
0.5625
0.5625
0.5625
0.5625
0.5625
0.5625
0.5625
0.5625
0.5625
0.5625
0.5625
0.5625
0.5625
0.5625
0.5625
0.56249
0.562493
0.562497
0.562499
0.5625
0.5625
0.5625
0.5625
0.5625
0.5625
0.210938
0.214643
0.218974
0.22411
0.230358
0.238202
0.24849
0.26321
0.290627
0.374458
0.551015
0.56222
0.562495
0.5625
0.5625
0.5625
0.5625
0.5625
0.5625
0.5625
0.5625
0.5625
0.5625
0.5625
0.5625
0.5625
0.5625
0.5625
0.5625
0.5625
0.562497
0.562498
0.562499
0.5625
0.5625
0.5625
0.5625
0.5625
0.5625
0.5625
0.218696
0.222282
0.226348
0.231069
0.23674
0.243833
0.253194
0.266947
0.294025
0.379956
0.550497
0.562194
0.562495
0.5625
0.5625
0.5625
0.5625
0.5625
0.5625
0.5625
0.5625
0.5625
0.5625
0.5625
0.5625
0.5625
0.5625
0.5625
0.5625
0.5625
0.562499
0.5625
0.5625
0.5625
0.5625
0.5625
0.5625
0.5625
0.5625
0.5625
0.226935
0.230367
0.234115
0.238343
0.243317
0.249468
0.257601
0.269848
0.295044
0.376509
0.547422
0.562085
0.562493
0.5625
0.5625
0.5625
0.5625
0.5625
0.5625
0.5625
0.5625
0.5625
0.5625
0.5625
0.5625
0.5625
0.5625
0.5625
0.5625
0.5625
0.5625
0.5625
0.5625
0.5625
0.5625
0.5625
0.5625
0.5625
0.5625
0.5625
0.23583
0.239073
0.24246
0.24613
0.250309
0.255364
0.261998
0.272161
0.293555
0.361607
0.537265
0.561774
0.562488
0.5625
0.5625
0.5625
0.5625
0.5625
0.5625
0.5625
0.5625
0.5625
0.5625
0.5625
0.5625
0.5625
0.5625
0.5625
0.5625
0.5625
0.5625
0.5625
0.5625
0.5625
0.5625
0.5625
0.5625
0.5625
0.5625
0.5625
0.245618
0.248639
0.251628
0.254701
0.258036
0.261923
0.266928
0.274616
0.290649
0.337273
0.346198
0.356629
0.368861
0.383812
0.403183
0.429123
0.462387
0.498977
0.52997
0.549042
0.557756
0.560981
0.56204
0.562366
0.562462
0.56249
0.562497
0.562499
0.5625
0.5625
0.5625
0.5625
0.5625
0.5625
0.5625
0.5625
0.5625
0.5625
0.5625
0.5625
0.256688
0.259466
0.262043
0.264518
0.267037
0.269831
0.273353
0.27884
0.289872
0.316208
0.329054
0.340526
0.353096
0.368559
0.389262
0.41793
0.455524
0.496898
0.530805
0.550329
0.558523
0.561311
0.562161
0.562406
0.562475
0.562493
0.562498
0.5625
0.5625
0.5625
0.5625
0.5625
0.5625
0.5625
0.5625
0.5625
0.5625
0.5625
0.5625
0.5625
0.270039
0.272617
0.274848
0.276833
0.278709
0.280702
0.283223
0.287154
0.2945
0.309255
0.321972
0.33467
0.349325
0.368253
0.394408
0.430278
0.473963
0.515285
0.542875
0.555831
0.560491
0.561931
0.562344
0.562458
0.562489
0.562497
0.562499
0.5625
0.5625
0.5625
0.5625
0.5625
0.5625
0.5625
0.5625
0.5625
0.5625
0.5625
0.5625
0.5625
0.288743
0.291362
0.293512
0.29529
0.296837
0.298372
0.300269
0.303226
0.308552
0.318259
0.330235
0.344932
0.364172
0.390681
0.426871
0.470954
0.512962
0.541462
0.555184
0.560253
0.561854
0.56232
0.562451
0.562487
0.562496
0.562499
0.5625
0.5625
0.5625
0.5625
0.5625
0.5625
0.5625
0.5625
0.5625
0.5625
0.5625
0.5625
0.5625
0.5625
0.318792
0.321895
0.324375
0.326349
0.327992
0.329576
0.33154
0.334611
0.339995
0.349413
0.363616
0.383917
0.412226
0.449191
0.490338
0.525439
0.54714
0.557106
0.560794
0.561992
0.562354
0.562459
0.562489
0.562497
0.562499
0.5625
0.5625
0.5625
0.5625
0.5625
0.5625
0.5625
0.5625
0.5625
0.5625
0.5625
0.5625
0.5625
0.5625
0.5625
0.371385
0.375725
0.379235
0.382095
0.38458
0.387108
0.390325
0.395213
0.403258
0.416416
0.436184
0.46278
0.493599
0.522476
0.543244
0.554655
0.559677
0.561568
0.56221
0.562413
0.562475
0.562493
0.562498
0.562499
0.5625
0.5625
0.5625
0.5625
0.5625
0.5625
0.5625
0.5625
0.5625
0.5625
0.5625
0.5625
0.5625
0.5625
0.5625
0.5625
0.455376
0.460502
0.46467
0.468153
0.471318
0.47468
0.478935
0.484981
0.493814
0.506035
0.52084
0.535724
0.547754
0.555513
0.559591
0.561408
0.562121
0.562377
0.562462
0.562488
0.562497
0.562499
0.5625
0.5625
0.5625
0.5625
0.5625
0.5625
0.5625
0.5625
0.5625
0.5625
0.5625
0.5625
0.5625
0.5625
0.5625
0.5625
0.5625
0.5625
0.531746
0.534269
0.536293
0.537986
0.539543
0.541192
0.543184
0.545744
0.548961
0.552614
0.556134
0.558923
0.560739
0.56173
0.562195
0.562389
0.562462
0.562488
0.562496
0.562499
0.5625
0.5625
0.5625
0.5625
0.5625
0.5625
0.5625
0.5625
0.5625
0.5625
0.5625
0.5625
0.5625
0.5625
0.5625
0.5625
0.5625
0.5625
0.5625
0.5625
0.558452
0.558874
0.559215
0.559502
0.55977
0.56005
0.560372
0.560752
0.56118
0.561605
0.561965
0.562219
0.562369
0.562445
0.562479
0.562492
0.562497
0.562499
0.5625
0.5625
0.5625
0.5625
0.5625
0.5625
0.5625
0.5625
0.5625
0.5625
0.5625
0.5625
0.5625
0.5625
0.5625
0.5625
0.5625
0.5625
0.5625
0.5625
0.5625
0.5625
0.562271
0.562298
0.56232
0.562339
0.562357
0.562375
0.562395
0.562418
0.562441
0.562462
0.562479
0.562489
0.562495
0.562498
0.562499
0.5625
0.5625
0.5625
0.5625
0.5625
0.5625
0.5625
0.5625
0.5625
0.5625
0.5625
0.5625
0.5625
0.5625
0.5625
0.5625
0.5625
0.5625
0.5625
0.5625
0.5625
0.5625
0.5625
0.5625
0.5625
0.00111443
0.00304077
0.00689752
0.012575
0.0196927
0.0278425
0.0366688
0.0458838
0.0552703
0.0646772
0.0739964
0.0831281
0.0919997
0.100569
0.10882
0.116761
0.124415
0.131799
0.138942
0.145876
0.152635
0.159258
0.165785
0.172262
0.17874
0.185282
0.191963
0.19888
0.20616
0.213989
0.222649
0.232638
0.244902
0.261304
0.285567
0.325893
0.397119
0.494068
0.550694
0.561743
0.00303921
0.00572389
0.0101331
0.0160953
0.0233185
0.0314769
0.0402682
0.049438
0.0587896
0.0681831
0.0775004
0.0866354
0.095513
0.10409
0.11235
0.120304
0.127967
0.135359
0.142506
0.149437
0.156187
0.162788
0.16928
0.175703
0.182105
0.188545
0.195094
0.201848
0.208937
0.216551
0.224984
0.234751
0.246835
0.263147
0.287524
0.328426
0.400828
0.497379
0.551572
0.56181
0.00689733
0.0101334
0.0149248
0.0210742
0.0283377
0.0364505
0.0451612
0.0542521
0.0635503
0.0729191
0.0822234
0.0913505
0.100222
0.108792
0.117048
0.124998
0.132651
0.140025
0.147146
0.15404
0.160738
0.167269
0.173665
0.179963
0.186204
0.192443
0.198748
0.205215
0.211978
0.219238
0.22731
0.236734
0.248527
0.26464
0.289013
0.330333
0.403714
0.5
0.552275
0.561866
0.0125757
0.0160954
0.021074
0.027291
0.0345243
0.0425515
0.0511636
0.0601762
0.069437
0.0787936
0.0880965
0.0972254
0.106097
0.114664
0.122919
0.130859
0.138493
0.145837
0.152916
0.159753
0.166372
0.172797
0.179054
0.185171
0.191183
0.197134
0.203089
0.209142
0.215437
0.222191
0.229747
0.238681
0.250058
0.265858
0.290117
0.331737
0.405991
0.502158
0.552868
0.561914
0.0196932
0.0233182
0.0283372
0.0345241
0.0416747
0.0495996
0.0581244
0.0670963
0.0763613
0.0857468
0.0950898
0.104257
0.113158
0.121751
0.130021
0.137962
0.145583
0.152904
0.159943
0.166721
0.173255
0.179563
0.18566
0.191565
0.197298
0.202891
0.208399
0.21391
0.219575
0.225636
0.232481
0.240748
0.251555
0.266915
0.290965
0.332826
0.407964
0.50415
0.553429
0.561961
0.0278425
0.0314762
0.0364498
0.0425511
0.0495994
0.0574357
0.0659214
0.0749182
0.0842575
0.0937545
0.103224
0.112506
0.121504
0.130177
0.138499
0.146473
0.154113
0.161438
0.168466
0.17521
0.181684
0.187896
0.193849
0.199545
0.204986
0.210182
0.215162
0.22
0.224846
0.22997
0.235833
0.243182
0.253218
0.267991
0.291751
0.333874
0.410072
0.506363
0.55405
0.562012
0.0366686
0.0402674
0.0451605
0.0511631
0.0581242
0.0659213
0.0744412
0.0835478
0.0930794
0.102842
0.112606
0.122149
0.131363
0.140194
0.148639
0.156712
0.164436
0.171833
0.178918
0.185703
0.192194
0.19839
0.204278
0.20984
0.215047
0.219869
0.224289
0.228335
0.232126
0.235958
0.240404
0.246439
0.255386
0.269369
0.292775
0.335288
0.41293
0.509275
0.554827
0.562073
0.0458834
0.0494372