/*--------------------------------*- C++ -*----------------------------------*\
| =========                 |                                                 |
| \\      /  F ield         | OpenFOAM: The Open Source CFD Toolbox           |
|  \\    /   O peration     | Version:  2.1.0                                 |
|   \\  /    A nd           | Web:      www.OpenFOAM.org                      |
|    \\/     M anipulation  |                                                 |
\*---------------------------------------------------------------------------*/
FoamFile
{
    version     2.0;
    format      ascii;
    class       volScalarField;
    location    "20075";
    object      kr_w;
}
// * * * * * * * * * * * * * * * * * * * * * * * * * * * * * * * * * * * * * //

dimensions      [0 0 0 0 0 0 0];

internalField   nonuniform List<scalar> 
8000
(
0.381178
0.358955
0.33318
0.307169
0.282475
0.259699
0.238949
0.22014
0.203153
0.187863
0.174127
0.161793
0.150706
0.140714
0.131686
0.123505
0.116047
0.1092
0.102871
0.0969739
0.0914348
0.0861861
0.0811649
0.0763105
0.0715617
0.066854
0.062116
0.0572652
0.0521938
0.0467595
0.0407829
0.0340787
0.0265919
0.0186728
0.0109264
0.00470268
0.00132479
0.000236994
2.62016e-05
1.39384e-06
0.358958
0.339801
0.317248
0.294059
0.271647
0.250633
0.231218
0.213423
0.19722
0.182542
0.169289
0.15734
0.146563
0.136824
0.128011
0.12001
0.112701
0.105982
0.0997614
0.0939587
0.0885036
0.083332
0.0783847
0.0736049
0.0689352
0.0643154
0.0596783
0.0549411
0.049993
0.0446866
0.0388377
0.0322647
0.0249461
0.0172975
0.00995531
0.00420842
0.00116587
0.00020589
2.2527e-05
1.18684e-06
0.333181
0.317248
0.298158
0.278072
0.258229
0.239245
0.221396
0.204819
0.189571
0.175646
0.162992
0.151525
0.141142
0.131736
0.123212
0.115455
0.108357
0.101821
0.095761
0.0901043
0.0847848
0.0797439
0.0749276
0.0702847
0.0657635
0.0613098
0.0568596
0.0523281
0.0475999
0.04252
0.0368952
0.0305433
0.0234732
0.0161442
0.00918714
0.00383073
0.00104469
0.000181809
1.96238e-05
1.02015e-06
0.30717
0.29406
0.278072
0.260867
0.243473
0.226469
0.210203
0.194887
0.180641
0.167513
0.155501
0.144558
0.134612
0.12559
0.117398
0.109926
0.103075
0.0967548
0.0908884
0.085408
0.0802544
0.075376
0.0707261
0.0662617
0.0619405
0.0577162
0.0535274
0.0492893
0.0448819
0.0401397
0.0348536
0.0288311
0.0221009
0.0151388
0.00855391
0.00352901
0.000948031
0.000162302
1.72233e-05
8.79843e-07
0.282475
0.271648
0.258229
0.243473
0.228213
0.212999
0.198206
0.184083
0.170789
0.158423
0.147026
0.136596
0.127098
0.118477
0.110629
0.103456
0.0968626
0.0907687
0.0851029
0.0798045
0.0748222
0.070113
0.0656406
0.0613744
0.0572847
0.0533337
0.0494684
0.0456095
0.0416356
0.0373673
0.0325683
0.0270166
0.0207438
0.0142086
0.00799736
0.00326944
0.000864282
0.00014511
1.5075e-05
7.53108e-07
0.259699
0.250634
0.239245
0.226469
0.212999
0.199335
0.185836
0.172761
0.160296
0.148581
0.137709
0.127735
0.118664
0.110418
0.102898
0.0960079
0.0896581
0.0837727
0.078287
0.0731479
0.0683133
0.0637512
0.0594402
0.0553631
0.0515029
0.0478394
0.0443397
0.0409427
0.0375348
0.0339223
0.0298222
0.0249442
0.0192961
0.0132721
0.00745814
0.00301927
0.000782469
0.00012818
1.29626e-05
6.29665e-07
0.238949
0.231218
0.221396
0.210203
0.198206
0.185836
0.173417
0.161194
0.149366
0.138108
0.127595
0.117981
0.109255
0.101326
0.0940856
0.0874322
0.0812781
0.0755505
0.0701907
0.0651546
0.0604117
0.0559428
0.0517355
0.0477862
0.0441013
0.0406928
0.0375691
0.0347122
0.0320391
0.0293484
0.0262806
0.0223933
0.0176182
0.0122303
0.00686999
0.00274441
0.000692174
0.000109794
1.07331e-05
5.03712e-07
0.22014
0.213423
0.204819
0.194888
0.184083
0.172761
0.161194
0.149592
0.138135
0.127029
0.116587
0.107129
0.0986134
0.0909002
0.0838497
0.0773455
0.071296
0.0656317
0.0603039
0.0552777
0.0505258
0.0460325
0.0417981
0.0378442
0.0342167
0.0309853
0.0282314
0.0260175
0.0243269
0.0229719
0.0214855
0.0191006
0.0155358
0.0109686
0.00616182
0.00241197
0.000585272
8.90317e-05
8.35013e-06
3.76349e-07
0.203153
0.19722
0.189571
0.180641
0.17079
0.160297
0.149366
0.138135
0.126704
0.11523
0.104122
0.0944609
0.0859522
0.0782947
0.0712795
0.0647662
0.0586632
0.0529062
0.0474442
0.0422413
0.0372802
0.0325706
0.0281611
0.0241446
0.0206472
0.0177838
0.0156629
0.0143842
0.0139952
0.0144037
0.0151511
0.0148925
0.0129182
0.0094005
0.00528053
0.00200182
0.000460225
6.64777e-05
5.94539e-06
2.56375e-07
0.187863
0.182542
0.175646
0.167514
0.158423
0.148581
0.138108
0.127029
0.11523
0.102258
0.0874848
0.077059
0.0682431
0.0603438
0.0530527
0.0461884
0.0396434
0.0333761
0.0274218
0.0219064
0.0170335
0.0129802
0.00976284
0.00733802
0.00560938
0.00446378
0.00381804
0.00366207
0.00411689
0.0054978
0.00810891
0.0102274
0.00999229
0.00759456
0.00423991
0.00152726
0.000327033
4.45443e-05
3.79009e-06
1.56361e-07
0.174127
0.16929
0.162992
0.155501
0.147027
0.137709
0.127595
0.116587
0.104122
0.0874848
0.0024778
0.00165365
0.00169116
0.00160809
0.00145729
0.00127258
0.0010749
0.000879284
0.000697168
0.000537012
0.000403869
0.000298875
0.000220054
0.000163702
0.00012563
0.000102391
9.24207e-05
9.81175e-05
0.000132955
0.000253132
0.00687932
0.00806786
0.00778541
0.00587499
0.00315857
0.00104781
0.000205841
2.63882e-05
2.1403e-06
8.47664e-08
0.161793
0.157341
0.151526
0.144558
0.136596
0.127735
0.117981
0.107129
0.0944609
0.077059
0.00165365
6.49688e-05
3.8342e-05
3.77354e-05
3.44618e-05
2.96409e-05
2.43151e-05
1.91684e-05
1.46113e-05
1.08405e-05
7.89048e-06
5.68995e-06
4.1159e-06
3.03544e-06
2.3332e-06
1.9283e-06
1.79149e-06
1.98949e-06
2.83884e-06
5.33174e-06
0.00557607
0.00633469
0.00593934
0.00431666
0.00215349
0.000635977
0.000114
1.38067e-05
1.07289e-06
4.10087e-08
0.150706
0.146563
0.141142
0.134613
0.127098
0.118664
0.109256
0.0986134
0.0859522
0.0682431
0.00169116
3.83421e-05
1.24247e-06
6.63611e-07
6.13648e-07
5.30089e-07
4.31284e-07
3.34761e-07
2.50412e-07
1.82222e-07
1.30267e-07
9.24991e-08
6.61054e-08
4.83493e-08
3.70067e-08
3.05666e-08
2.84243e-08
3.14357e-08
4.35962e-08
7.34604e-08
0.00430652
0.00479884
0.00433615
0.00295641
0.00131506
0.000338336
5.58178e-05
6.43844e-06
4.82496e-07
1.79021e-08
0.140714
0.136825
0.131736
0.12559
0.118477
0.110418
0.101326
0.0909002
0.0782947
0.0603438
0.00160809
3.77354e-05
6.63612e-07
1.85835e-08
9.07814e-09
7.85019e-09
6.39949e-09
4.9428e-09
3.66425e-09
2.63724e-09
1.86334e-09
1.30776e-09
9.24112e-10
6.68469e-10
5.0574e-10
4.11849e-10
3.75141e-10
4.00715e-10
5.21687e-10
7.82111e-10
0.00314214
0.00343995
0.00295957
0.0018359
0.000702144
0.000158249
2.44637e-05
2.71388e-06
1.97471e-07
7.15108e-09
0.131686
0.128011
0.123212
0.117398
0.11063
0.102899
0.0940857
0.0838498
0.0712795
0.0530527
0.00145729
3.44618e-05
6.13649e-07
9.07815e-09
2.25057e-10
1.01416e-10
8.2256e-11
6.3551e-11
4.69237e-11
3.35367e-11
2.34813e-11
1.63042e-11
1.13789e-11
8.1109e-12
6.02454e-12
4.78711e-12
4.21238e-12
4.27832e-12
5.17301e-12
6.97873e-12
0.00212922
0.00227888
0.00183143
0.00099928
0.000324146
6.60361e-05
9.74809e-06
1.04981e-06
7.46412e-08
2.65098e-09
0.123505
0.12001
0.115455
0.109926
0.103456
0.096008
0.0874323
0.0773456
0.0647662
0.0461884
0.00127258
2.96409e-05
5.3009e-07
7.8502e-09
1.01416e-10
2.26745e-12
9.50968e-13
7.279e-13
5.36447e-13
3.81423e-13
2.64875e-13
1.81946e-13
1.25276e-13
8.77044e-14
6.36335e-14
4.91293e-14
4.14518e-14
3.9788e-14
4.46079e-14
5.47811e-14
0.00130527
0.00135087
0.000990142
0.000464912
0.000131179
2.50529e-05
3.58654e-06
3.78076e-07
2.64164e-08
9.24028e-10
0.116047
0.112702
0.108357
0.103075
0.0968627
0.0896582
0.0812782
0.071296
0.0586633
0.0396433
0.0010749
2.43151e-05
4.31285e-07
6.3995e-09
8.22561e-11
9.50968e-13
1.9559e-14
7.54101e-15
5.40413e-15
3.72764e-15
2.41312e-15
1.4574e-15
8.31893e-16
4.09596e-16
1.20656e-16
1.20656e-16
1.20656e-16
1.20656e-16
1.20656e-16
1.20656e-16
0.000703005
0.0006926
0.000455182
0.000185888
4.77986e-05
8.79531e-06
1.23571e-06
1.28427e-07
8.86298e-09
3.06438e-10
0.109201
0.105982
0.101821
0.0967549
0.0907688
0.0837728
0.0755505
0.0656318
0.0529062
0.033376
0.000879284
1.91684e-05
3.34762e-07
4.94281e-09
6.3551e-11
7.279e-13
7.54101e-15
0
0
0
0
0
0
0
0
0
0
0
0
0
0.000327449
0.000302693
0.000178922
6.59092e-05
1.60621e-05
2.9014e-06
4.03848e-07
4.16419e-08
2.85128e-09
9.77425e-11
0.102871
0.0997615
0.0957611
0.0908885
0.085103
0.0782871
0.0701908
0.0603039
0.0474442
0.0274218
0.000697168
1.46114e-05
2.50412e-07
3.66426e-09
4.69238e-11
5.36447e-13
5.40413e-15
0
0
0
0
0
0
0
0
0
0
0
0
0
0.000133173
0.000114761
6.21319e-05
2.13926e-05
5.07516e-06
9.1184e-07
1.26712e-07
1.30346e-08
8.89017e-10
3.02944e-11
0.0969739
0.0939588
0.0901044
0.0854081
0.0798046
0.073148
0.0651546
0.0552777
0.0422414
0.0219064
0.000537012
1.08405e-05
1.82223e-07
2.63724e-09
3.35367e-11
3.81423e-13
3.72764e-15
0
0
0
0
0
0
0
0
0
0
0
0
0
4.84956e-05
3.90135e-05
1.97267e-05
6.51914e-06
1.53306e-06
2.76569e-07
3.86146e-08
3.98193e-09
2.71469e-10
9.21653e-12
0.0914348
0.0885036
0.0847849
0.0802545
0.0748223
0.0683133
0.0604117
0.0505258
0.0372802
0.0170334
0.00040387
7.89049e-06
1.30267e-07
1.86334e-09
2.34813e-11
2.64875e-13
2.41312e-15
0
0
0
0
0
0
0
0
0
0
0
0
0
1.62523e-05
1.22742e-05
5.89243e-06
1.9044e-06
4.49262e-07
8.19536e-08
1.15581e-08
1.19995e-09
8.2037e-11
2.78102e-12
0.0861861
0.083332
0.079744
0.075376
0.070113
0.0637513
0.0559429
0.0460325
0.0325706
0.0129802
0.000298875
5.68996e-06
9.24992e-08
1.30777e-09
1.63042e-11
1.81946e-13
1.4574e-15
0
0
0
0
0
0
0
0
0
0
0
0
0
5.13578e-06
3.6676e-06
1.69348e-06
5.42185e-07
1.29358e-07
2.39949e-08
3.43487e-09
3.60526e-10
2.47998e-11
8.41644e-13
0.0811649
0.0783848
0.0749277
0.0707262
0.0656406
0.0594402
0.0517355
0.0417982
0.0281612
0.00976284
0.000220054
4.1159e-06
6.61056e-08
9.24114e-10
1.1379e-11
1.25276e-13
8.31893e-16
0
0
0
0
0
0
0
0
0
0
0
0
0
1.55765e-06
1.05979e-06
4.75672e-07
1.52301e-07
3.69857e-08
7.01285e-09
1.02407e-09
1.0917e-10
7.58532e-12
2.58693e-13
0.0763105
0.0736049
0.0702847
0.0662618
0.0613745
0.0553631
0.0477863
0.0378443
0.0241446
0.00733802
0.000163702
3.03545e-06
4.83494e-08
6.6847e-10
8.11093e-12
8.77044e-14
4.09596e-16
0
0
0
0
0
0
0
0
0
0
0
0
0
4.58029e-07
2.99224e-07
1.31838e-07
4.25735e-08
1.05911e-08
2.0649e-09
3.09417e-10
3.36925e-11
2.37705e-12
8.19573e-14
0.0715618
0.0689353
0.0657636
0.0619406
0.0572848
0.051503
0.0441013
0.0342168
0.0206472
0.00560939
0.00012563
2.3332e-06
3.70067e-08
5.05741e-10
6.02456e-12
6.36335e-14
1.20656e-16
0
0
0
0
0
0
0
0
0
0
0
0
0
1.3107e-07
8.29246e-08
3.62462e-08
1.19134e-08
3.05952e-09
6.18e-10
9.57576e-11
1.07312e-11
7.74346e-13
2.72874e-14
0.066854
0.0643154
0.0613098
0.0577162
0.0533337
0.0478394
0.0406928
0.0309853
0.0177838
0.00446378
0.000102391
1.9283e-06
3.05667e-08
4.1185e-10
4.78724e-12
4.91293e-14
1.20656e-16
0
0
0
0
0
0
0
0
0
0
0
0
0
3.63881e-08
2.25277e-08
9.89804e-09
3.35007e-09
8.97183e-10
1.89588e-10
3.06727e-11
3.57215e-12
2.6633e-13
9.73505e-15
0.062116
0.0596783
0.0568596
0.0535274
0.0494684
0.0443397
0.0375691
0.0282315
0.015663
0.00381805
9.24208e-05
1.7915e-06
2.84244e-08
3.75142e-10
4.21238e-12
4.14518e-14
1.20656e-16
0
0
0
0
0
0
0
0
0
0
0
0
0
9.71889e-09
5.96569e-09
2.67954e-09
9.47982e-10
2.68253e-10
6.00455e-11
1.027e-11
1.25888e-12
9.83602e-14
3.75939e-15
0.0572652
0.0549412
0.0523282
0.0492893
0.0456095
0.0409427
0.0347123
0.0260175
0.0143842
0.00366207
9.81176e-05
1.9895e-06
3.14357e-08
4.00716e-10
4.27838e-12
3.9788e-14
1.20656e-16
0
0
0
0
0
0
0
0
0
0
0
0
0
2.46015e-09
1.52514e-09
7.16164e-10
2.69975e-10
8.20556e-11
1.97546e-11
3.62665e-12
4.755e-13
3.97086e-14
1.63203e-15
0.0521939
0.0499931
0.0476
0.044882
0.0416356
0.0375348
0.0320391
0.024327
0.0139952
0.0041169
0.000132955
2.83885e-06
4.35963e-08
5.21689e-10
5.17301e-12
4.46079e-14
1.20656e-16
0
0
0
0
0
0
0
0
0
0
0
0
0
5.7352e-10
3.70358e-10
1.87617e-10
7.7222e-11
2.57095e-11
6.77607e-12
1.3591e-12
1.9433e-13
1.77428e-14
7.62039e-16
0.0467595
0.0446867
0.04252
0.0401397
0.0373674
0.0339223
0.0293484
0.0229719
0.0144037
0.00549781
0.000253132
5.33175e-06
7.34606e-08
7.82113e-10
6.97875e-12
5.47811e-14
1.20656e-16
0
0
0
0
0
0
0
0
0
0
0
0
0
1.15541e-10
8.31031e-11
4.76015e-11
2.20566e-11
8.22754e-12
2.42121e-12
5.41178e-13
8.62724e-14
8.81743e-15
3.77844e-16
0.0407829
0.0388378
0.0368952
0.0348536
0.0325684
0.0298222
0.0262807
0.0214855
0.0151511
0.00810892
0.00687933
0.00557608
0.00430653
0.00314214
0.00212922
0.00130528
0.000703008
0.000327451
0.000133173
4.84959e-05
1.62524e-05
5.13582e-06
1.55767e-06
4.58032e-07
1.31071e-07
3.63883e-08
9.71895e-09
2.46017e-09
5.73524e-10
1.15542e-10
2.89664e-11
1.77672e-11
1.16286e-11
6.23502e-12
2.66685e-12
8.94701e-13
2.27564e-13
4.1401e-14
4.84847e-15
1.77809e-16
0.0340787
0.0322647
0.0305433
0.0288311
0.0270167
0.0249442
0.0223933
0.0191006
0.0148925
0.0102274
0.00806787
0.0063347
0.00479885
0.00343996
0.00227889
0.00135087
0.000692604
0.000302695
0.000114762
3.90138e-05
1.22743e-05
3.66763e-06
1.0598e-06
2.99226e-07
8.29252e-08
2.25278e-08
5.96573e-09
1.52515e-09
3.7036e-10
8.31037e-11
1.77673e-11
5.61847e-12
3.04055e-12
1.77087e-12
8.69979e-13
3.37971e-13
9.98398e-14
2.1191e-14
2.92115e-15
1.20656e-16
0.0265919
0.0249461
0.0234733
0.0221009
0.0207438
0.0192961
0.0176183
0.0155358
0.0129182
0.00999231
0.00778543
0.00593935
0.00433616
0.00295958
0.00183143
0.000990147
0.000455184
0.000178924
6.21324e-05
1.97269e-05
5.89248e-06
1.69349e-06
4.75676e-07
1.31839e-07
3.62465e-08
9.89811e-09
2.67956e-09
7.16169e-10
1.87618e-10
4.76018e-11
1.16286e-11
3.04055e-12
1.09609e-12
5.5506e-13
2.91756e-13
1.30048e-13
4.51064e-14
1.14274e-14
1.8797e-15
1.20656e-16
0.0186728
0.0172976
0.0161443
0.0151388
0.0142086
0.0132721
0.0122303
0.0109686
0.00940052
0.00759458
0.005875
0.00431667
0.00295642
0.00183591
0.000999285
0.000464915
0.000185889
6.59098e-05
2.13928e-05
6.51919e-06
1.90442e-06
5.4219e-07
1.52302e-07
4.25738e-08
1.19135e-08
3.35009e-09
9.47989e-10
2.69977e-10
7.72225e-11
2.20567e-11
6.23504e-12
1.77088e-12
5.5506e-13
2.21553e-13
1.08219e-13
5.2114e-14
2.09974e-14
6.38208e-15
1.28912e-15
1.20656e-16
0.0109264
0.00995533
0.00918716
0.00855392
0.00799738
0.00745816
0.00687001
0.00616183
0.00528054
0.00423992
0.00315858
0.00215349
0.00131507
0.000702148
0.000324148
0.00013118
4.77989e-05
1.60622e-05
5.0752e-06
1.53308e-06
4.49266e-07
1.29359e-07
3.6986e-08
1.05912e-08
3.05954e-09
8.9719e-10
2.68254e-10
8.20561e-11
2.57097e-11
8.22762e-12
2.66687e-12
8.69979e-13
2.91756e-13
1.08219e-13
4.73925e-14
2.28008e-14
1.02336e-14
3.70859e-15
9.14447e-16
1.14306e-16
0.00470269
0.00420842
0.00383074
0.00352902
0.00326945
0.00301928
0.00274442
0.00241197
0.00200183
0.00152726
0.00104782
0.00063598
0.000338338
0.00015825
6.60365e-05
2.50531e-05
8.79537e-06
2.90142e-06
9.11847e-07
2.76571e-07
8.19543e-08
2.39951e-08
7.0129e-09
2.06492e-09
6.18004e-10
1.89589e-10
6.00459e-11
1.97547e-11
6.77614e-12
2.42127e-12
8.94707e-13
3.37971e-13
1.30048e-13
5.2114e-14
2.28008e-14
1.0948e-14
5.2803e-15
2.24484e-15
6.63609e-16
7.93791e-17
0.00132479
0.00116588
0.00104469
0.000948033
0.000864284
0.000782471
0.000692176
0.000585274
0.000460227
0.000327035
0.000205842
0.000114
5.58181e-05
2.44638e-05
9.74816e-06
3.58656e-06
1.23572e-06
4.0385e-07
1.26713e-07
3.86149e-08
1.15582e-08
3.4349e-09
1.02408e-09
3.09419e-10
9.57583e-11
3.06729e-11
1.02701e-11
3.62667e-12
1.3591e-12
5.41178e-13
2.27564e-13
9.98398e-14
4.51064e-14
2.09974e-14
1.02336e-14
5.2803e-15
2.80049e-15
1.35897e-15
4.73099e-16
6.03281e-17
0.000236994
0.000205891
0.00018181
0.000162303
0.000145111
0.00012818
0.000109794
8.9032e-05
6.6478e-05
4.45445e-05
2.63883e-05
1.38068e-05
6.43847e-06
2.71389e-06
1.04982e-06
3.78078e-07
1.28428e-07
4.16422e-08
1.30347e-08
3.98196e-09
1.19996e-09
3.60529e-10
1.09171e-10
3.36927e-11
1.07312e-11
3.57217e-12
1.25888e-12
4.755e-13
1.9433e-13
8.62724e-14
4.1401e-14
2.1191e-14
1.14274e-14
6.38208e-15
3.70859e-15
2.24484e-15
1.35897e-15
7.93791e-16
3.11166e-16
2.54013e-17
2.62017e-05
2.25271e-05
1.96238e-05
1.72233e-05
1.5075e-05
1.29627e-05
1.07331e-05
8.35016e-06
5.94542e-06
3.79011e-06
2.14031e-06
1.07289e-06
4.82498e-07
1.97472e-07
7.46417e-08
2.64166e-08
8.86303e-09
2.8513e-09
8.89023e-10
2.71471e-10
8.20377e-11
2.48e-11
7.58539e-12
2.37705e-12
7.74346e-13
2.6633e-13
9.83602e-14
3.97086e-14
1.77428e-14
8.81743e-15
4.84847e-15
2.92115e-15
1.8797e-15
1.28912e-15
9.14447e-16
6.63609e-16
4.73099e-16
3.11166e-16
1.20656e-16
0
1.39384e-06
1.18684e-06
1.02015e-06
8.79846e-07
7.53111e-07
6.29667e-07
5.03714e-07
3.76351e-07
2.56376e-07
1.56362e-07
8.47668e-08
4.10089e-08
1.79022e-08
7.15112e-09
2.65099e-09
9.24034e-10
3.0644e-10
9.77431e-11
3.02945e-11
9.21658e-12
2.78102e-12
8.41644e-13
2.58693e-13
8.19573e-14
2.72874e-14
9.73505e-15
3.75939e-15
1.63203e-15
7.62039e-16
3.77844e-16
1.77809e-16
1.20656e-16
1.20656e-16
1.20656e-16
1.14306e-16
7.93791e-17
6.03281e-17
2.54013e-17
0
0
0.482464
0.451726
0.414611
0.377351
0.342874
0.312125
0.285095
0.261441
0.240714
0.222477
0.206376
0.192129
0.179484
0.168215
0.158111
0.148989
0.140717
0.133167
0.126231
0.119815
0.113836
0.108224
0.102915
0.0978508
0.0929758
0.0882369
0.0835795
0.0789474
0.0742817
0.0695217
0.0646007
0.0594118
0.0536473
0.0463886
0.036452
0.0231402
0.0094283
0.00207428
0.000250475
1.40256e-05
0.451735
0.42433
0.391891
0.359102
0.328282
0.300317
0.275357
0.253226
0.233614
0.216206
0.200745
0.187001
0.174761
0.163822
0.153985
0.145093
0.137019
0.129643
0.122862
0.116587
0.110742
0.10526
0.10008
0.0951496
0.0904164
0.08583
0.0813381
0.0768853
0.072412
0.0678553
0.0631455
0.0581692
0.0525923
0.0454422
0.0355333
0.0222326
0.00881131
0.00188838
0.000224062
1.23785e-05
0.414611
0.391891
0.3649
0.337104
0.310396
0.285635
0.263105
0.242785
0.224516
0.208128
0.193465
0.18036
0.168641
0.158128
0.148645
0.140064
0.132263
0.125131
0.118573
0.112507
0.106863
0.101579
0.0966015
0.091881
0.0873706
0.0830226
0.0787863
0.0746055
0.0704175
0.0661533
0.0617352
0.0570374
0.0516936
0.0446773
0.0348123
0.0215169
0.00832455
0.00174135
0.00020282
1.10277e-05
0.377349
0.359104
0.337104
0.313929
0.291114
0.26947
0.249355
0.230863
0.213984
0.198679
0.184878
0.172474
0.161333
0.151295
0.142226
0.134011
0.126535
0.119697
0.113412
0.107604
0.102211
0.0971778
0.0924578
0.088008
0.0837869
0.0797513
0.0758528
0.0720343
0.0682272
0.0643517
0.0603149
0.0559686
0.0509056
0.0440528
0.0342468
0.0209457
0.00792805
0.00161989
0.000184895
9.86381e-06
0.342874
0.328284
0.310397
0.291114
0.271671
0.252792
0.234855
0.218046
0.202482
0.188218
0.175258
0.16355
0.152987
0.143443
0.134817
0.126997
0.119876
0.113363
0.107381
0.101862
0.0967522
0.0920047
0.0875805
0.0834448
0.079564
0.0759024
0.0724168
0.0690507
0.0657288
0.0623541
0.058806
0.0548986
0.05017
0.0435155
0.0337817
0.0204581
0.00757539
0.00150934
0.000168268
8.77059e-06
0.312125
0.300318
0.285635
0.269469
0.252792
0.236217
0.220126
0.204781
0.190369
0.177018
0.164799
0.153713
0.143681
0.134628
0.126447
0.119028
0.112273
0.106097
0.100431
0.0952158
0.0904047
0.0859601
0.0818519
0.0780554
0.0745485
0.0713074
0.0682995
0.0654743
0.0627515
0.060012
0.0570895
0.0537331
0.0493988
0.042988
0.033338
0.01997
0.00720883
0.00139342
0.000150879
7.63928e-06
0.285095
0.275357
0.263104
0.249355
0.234854
0.220125
0.205547
0.191402
0.17791
0.165253
0.153578
0.142964
0.133406
0.124808
0.117051
0.110022
0.103627
0.0977849
0.092433
0.0875206
0.0830085
0.0788674
0.0750767
0.0716239
0.0685016
0.0657037
0.063217
0.0610076
0.0590009
0.0570569
0.0549446
0.0522943
0.0484375
0.0423432
0.032794
0.0193606
0.00675633
0.00125503
0.000130902
6.39146e-06
0.261441
0.253226
0.242785
0.230863
0.218046
0.20478
0.191402
0.178168
0.165289
0.152969
0.14147
0.131145
0.121962
0.113763
0.106394
0.0997298
0.0936707
0.0881411
0.0830837
0.0784547
0.0742211
0.0703603
0.0668595
0.0637161
0.0609364
0.0585351
0.0565311
0.0549365
0.0537259
0.0527774
0.0517864
0.050119
0.0469708
0.0413539
0.0319573
0.0184585
0.00613472
0.0010797
0.000107363
5.01516e-06
0.240715
0.233614
0.224515
0.213984
0.202482
0.190369
0.17791
0.165288
0.152617
0.140011
0.127953
0.117631
0.108703
0.100835
0.0937959
0.0874329
0.0816412
0.0763488
0.0715052
0.067072
0.0630165
0.0593079
0.0559165
0.0528201
0.0500215
0.0476033
0.045706
0.0444965
0.0441389
0.0446621
0.0456981
0.0459784
0.0443296
0.0396202
0.0305305
0.0170355
0.00526989
0.000863456
8.10176e-05
3.59708e-06
0.222477
0.216206
0.208128
0.198679
0.188218
0.177018
0.165253
0.152969
0.140011
0.125987
0.110492
0.0998255
0.0910317
0.0833564
0.0764617
0.0701626
0.0643521
0.0589676
0.0539586
0.0492536
0.0447346
0.0402924
0.0359845
0.031882
0.0281095
0.0248785
0.0224949
0.0213719
0.0220712
0.0252822
0.0312457
0.0372314
0.0393958
0.0366117
0.0281522
0.0148634
0.00415281
0.000623148
5.48179e-05
2.30741e-06
0.206376
0.200744
0.193465
0.184877
0.175258
0.164799
0.153578
0.14147
0.127953
0.110492
0.00373756
0.00270585
0.0029414
0.00298827
0.00291636
0.00277181
0.00258111
0.00236185
0.00212681
0.00188604
0.00164813
0.00142129
0.00121337
0.00103172
0.000883747
0.00077802
0.000727681
0.000761748
0.000966357
0.00167149
0.0289478
0.0334835
0.0355107
0.0331547
0.024831
0.0119323
0.00291374
0.000396811
3.27282e-05
1.30896e-06
0.192129
0.187001
0.18036
0.172474
0.16355
0.153713
0.142964
0.131145
0.117631
0.0998254
0.00270585
0.000137514
8.83652e-05
9.45997e-05
9.48306e-05
9.03962e-05
8.3031e-05
7.40154e-05
6.43105e-05
5.46411e-05
4.55448e-05
3.74037e-05
3.04665e-05
2.48754e-05
2.07072e-05
1.80441e-05
1.71253e-05
1.87387e-05
2.5414e-05
4.44831e-05
0.0264265
0.0303927
0.0319413
0.0292657
0.0205874
0.00854361
0.00178251
0.000221032
1.71998e-05
6.57367e-07
0.179484
0.174761
0.168641
0.161333
0.152987
0.14368
0.133406
0.121962
0.108703
0.0910317
0.0029414
8.83653e-05
3.54838e-06
2.08979e-06
2.13931e-06
2.06345e-06
1.888e-06
1.65715e-06
1.40571e-06
1.15909e-06
9.3428e-07
7.41191e-07
5.84135e-07
4.63515e-07
3.77646e-07
3.24935e-07
3.07107e-07
3.35731e-07
4.47674e-07
7.13669e-07
0.0236801
0.0272613
0.0281738
0.0247071
0.0155348
0.00529033
0.000944047
0.000108207
8.02357e-06
2.95162e-07
0.168215
0.163822
0.158128
0.151295
0.143443
0.134628
0.124808
0.113763
0.100835
0.0833564
0.00298827
9.45998e-05
2.08979e-06
7.03726e-08
3.82835e-08
3.70122e-08
3.38912e-08
2.94597e-08
2.45546e-08
1.97851e-08
1.55321e-08
1.19848e-08
9.19141e-09
7.11122e-09
5.66362e-09
4.77225e-09
4.41192e-09
4.67992e-09
5.92007e-09
8.51662e-09
0.0206079
0.0237454
0.0238115
0.0192938
0.0102011
0.002784
0.000436379
4.71928e-05
3.36964e-06
1.20164e-07
0.158111
0.153985
0.148645
0.142226
0.134817
0.126447
0.117051
0.106394
0.0937959
0.0764617
0.00291636
9.48306e-05
2.13932e-06
3.82835e-08
1.10839e-09
5.57987e-10
5.06068e-10
4.36901e-10
3.59161e-10
2.83971e-10
2.18015e-10
1.64212e-10
1.2284e-10
9.26735e-11
7.19147e-11
5.8894e-11
5.26128e-11
5.33365e-11
6.32844e-11
8.30782e-11
0.0170484
0.0195606
0.0186052
0.013266
0.00560425
0.0012509
0.000179357
1.86503e-05
1.29414e-06
4.50191e-08
0.148989
0.145093
0.140064
0.134011
0.126997
0.119028
0.110022
0.0997299
0.0874329
0.0701626
0.00277181
9.03962e-05
2.06345e-06
3.70122e-08
5.57988e-10
1.4139e-11
6.5901e-12
5.5904e-12
4.54037e-12
3.53047e-12
2.65653e-12
1.95653e-12
1.42851e-12
1.04985e-12
7.91308e-13
6.26584e-13
5.37212e-13
5.1712e-13
5.75067e-13
6.97723e-13
0.012936
0.0146251
0.0127685
0.00761562
0.00255252
0.000491333
6.69663e-05
6.79126e-06
4.61405e-07
1.57409e-08
0.140717
0.137019
0.132263
0.126535
0.119876
0.112273
0.103627
0.0936707
0.0816412
0.064352
0.00258112
8.3031e-05
1.888e-06
3.38912e-08
5.06069e-10
6.5901e-12
1.48756e-13
6.42907e-14
5.1082e-14
3.90482e-14
2.88305e-14
2.07846e-14
1.48375e-14
1.05701e-14
7.68707e-15
5.83278e-15
4.76275e-15
4.31505e-15
4.58176e-15
5.21997e-15
0.00858948
0.00941027
0.00728632
0.0035582
0.000985307
0.000174026
2.31581e-05
2.31328e-06
1.5482e-07
5.20309e-09
0.133168
0.129643
0.125131
0.119697
0.113363
0.106097
0.097785
0.0881411
0.0763489
0.0589675
0.00236185
7.40155e-05
1.65716e-06
2.94597e-08
4.36901e-10
5.59046e-12
6.42907e-14
7.14412e-16
1.20656e-16
1.20656e-16
8.89046e-17
0
0
0
0
0
0
0
0
0
0.00478698
0.00497948
0.00336467
0.00137451
0.000335225
5.71216e-05
7.53934e-06
7.47109e-07
4.95054e-08
1.64533e-09
0.126232
0.122862
0.118573
0.113412
0.107381
0.100431
0.092433
0.0830837
0.0715052
0.0539586
0.00212681
6.43106e-05
1.40571e-06
2.45546e-08
3.59161e-10
4.54037e-12
5.1082e-14
1.20656e-16
0
0
0
0
0
0
0
0
0
0
0
0
0.00220701
0.00214437
0.00127639
0.000457445
0.000104814
1.77371e-05
2.34331e-06
2.31646e-07
1.52647e-08
5.03402e-10
0.119815
0.116587
0.112507
0.107604
0.101862
0.0952158
0.0875206
0.0784547
0.067072
0.0492536
0.00188604
5.46411e-05
1.15909e-06
1.97852e-08
2.83971e-10
3.53047e-12
3.90482e-14
1.20656e-16
0
0
0
0
0
0
0
0
0
0
0
0
0.000858082
0.000772833
0.000416129
0.000138235
3.10593e-05
5.29339e-06
7.04227e-07
6.97789e-08
4.59122e-09
1.50693e-10
0.113836
0.110742
0.106863
0.102211
0.0967522
0.0904047
0.0830086
0.0742211
0.0630165
0.0447346
0.00164813
4.55448e-05
9.34282e-07
1.55321e-08
2.18016e-10
2.65653e-12
2.88305e-14
8.89046e-17
0
0
0
0
0
0
0
0
0
0
0
0
0.000294199
0.000246025
0.000123511
3.95447e-05
8.89823e-06
1.53851e-06
2.07107e-07
2.06612e-08
1.36259e-09
4.46386e-11
0.108224
0.10526
0.101579
0.0971778
0.0920047
0.0859601
0.0788674
0.0703603
0.0593079
0.0402924
0.00142129
3.74037e-05
7.41192e-07
1.19848e-08
1.64212e-10
1.95653e-12
2.07846e-14
0
0
0
0
0
0
0
0
0
0
0
0
0
9.32446e-05
7.28931e-05
3.48358e-05
1.09751e-05
2.49932e-06
4.40643e-07
6.0297e-08
6.08378e-09
4.03751e-10
1.32413e-11
0.102915
0.10008
0.0966015
0.0924579
0.0875805
0.0818519
0.0750767
0.0668596
0.0559166
0.0359845
0.00121337
3.04665e-05
5.84136e-07
9.19142e-09
1.2284e-10
1.42851e-12
1.48375e-14
0
0
0
0
0
0
0
0
0
0
0
0
0
2.81621e-05
2.07344e-05
9.55389e-06
2.99756e-06
6.95714e-07
1.25698e-07
1.7574e-08
1.80255e-09
1.20927e-10
3.98443e-12
0.0978508
0.0951496
0.091881
0.088008
0.0834448
0.0780555
0.0716239
0.0637161
0.0528202
0.031882
0.00103172
2.48754e-05
4.63515e-07
7.11123e-09
9.26736e-11
1.04985e-12
1.05701e-14
0
0
0
0
0
0
0
0
0
0
0
0
0
8.22109e-06
5.74295e-06
2.57693e-06
8.12928e-07
1.93614e-07
3.60647e-08
5.18433e-09
5.43955e-10
3.70995e-11
1.23408e-12
0.0929759
0.0904164
0.0873706
0.0837869
0.0795641
0.0745486
0.0685016
0.0609364
0.0500215
0.0281095
0.000883748
2.07072e-05
3.77646e-07
5.66363e-09
7.19148e-11
7.91308e-13
7.68707e-15
0
0
0
0
0
0
0
0
0
0
0
0
0
2.32828e-06
1.55616e-06
6.87462e-07
2.20296e-07
5.4285e-08
1.0507e-08
1.56556e-09
1.69385e-10
1.18326e-11
4.00137e-13
0.0882369
0.08583
0.0830226
0.0797513
0.0759024
0.0713074
0.0657037
0.0585351
0.0476033
0.0248785
0.00077802
1.80442e-05
3.24936e-07
4.77226e-09
5.88942e-11
6.26584e-13
5.83278e-15
0
0
0
0
0
0
0
0
0
0
0
0
0
6.37266e-07
4.11801e-07
1.8163e-07
5.98939e-08
1.54363e-08
3.13634e-09
4.89377e-10
5.51576e-11
3.98582e-12
1.38466e-13
0.0835796
0.0813381
0.0787863
0.0758528
0.0724168
0.0682995
0.063217
0.0565311
0.045706
0.0224949
0.000727682
1.71253e-05
3.07108e-07
4.41193e-09
5.26129e-11
5.37212e-13
4.76275e-15
0
0
0
0
0
0
0
0
0
0
0
0
0
1.67252e-07
1.05933e-07
4.74944e-08
1.6379e-08
4.47596e-09
9.67013e-10
1.60045e-10
1.90367e-11
1.44208e-12
5.22759e-14
0.0789475
0.0768853
0.0746056
0.0720343
0.0690507
0.0654743
0.0610076
0.0549365
0.0444965
0.0213719
0.000761749
1.87388e-05
3.35732e-07
4.67993e-09
5.33367e-11
5.1712e-13
4.31505e-15
0
0
0
0
0
0
0
0
0
0
0
0
0
4.14841e-08
2.62611e-08
1.22573e-08
4.5108e-09
1.32916e-09
3.10102e-10
5.52823e-11
7.05104e-12
5.69586e-13
2.20039e-14
0.0742818
0.072412
0.0704175
0.0682272
0.0657288
0.0627515
0.0590009
0.0537259
0.0441389
0.0220712
0.000966358
2.54141e-05
4.47675e-07
5.92009e-09
6.32845e-11
5.75067e-13
4.58176e-15
0
0
0
0
0
0
0
0
0
0
0
0
0
9.45432e-09
6.1793e-09
3.10345e-09
1.24975e-09
4.05012e-10
1.0387e-10
2.03011e-11
2.82916e-12
2.48923e-13
1.0513e-14
0.0695217
0.0678553
0.0661533
0.0643518
0.0623541
0.0600121
0.0570569
0.0527774
0.0446622
0.0252823
0.0016715
4.44832e-05
7.13671e-07
8.51664e-09
8.30784e-11
6.97742e-13
5.21997e-15
0
0
0
0
0
0
0
0
0
0
0
0
0
1.85863e-09
1.34404e-09
7.6252e-10
3.46609e-10
1.2635e-10
3.63218e-11
7.93552e-12
1.23392e-12
1.21091e-13
5.7407e-15
0.0646007
0.0631456
0.0617353
0.0603149
0.058806
0.0570896
0.0549447
0.0517864
0.0456981
0.0312457
0.0289478
0.0264266
0.0236801
0.0206079
0.0170484
0.012936
0.00858951
0.00478701
0.00220703
0.000858088
0.000294201
9.32453e-05
2.81623e-05
8.22115e-06
2.32829e-06
6.3727e-07
1.67253e-07
4.14844e-08
9.45439e-09
1.85864e-09
4.55394e-10
2.7874e-10
1.80886e-10
9.54247e-11
4.00307e-11
1.31639e-11
3.28119e-12
5.82084e-13
6.5383e-14
3.56571e-15
0.0594118
0.0581692
0.0570374
0.0559686
0.0548986
0.0537332
0.0522943
0.0501191
0.0459784
0.0372315
0.0334835
0.0303927
0.0272613
0.0237454
0.0195607
0.0146252
0.00941031
0.0049795
0.00214439
0.000772838
0.000246026
7.28936e-05
2.07346e-05
5.743e-06
1.55617e-06
4.11804e-07
1.05934e-07
2.62613e-08
6.17934e-09
1.34405e-09
2.78741e-10
8.61685e-11
4.60792e-11
2.64755e-11
1.27967e-11
4.88613e-12
1.41611e-12
2.92944e-13
3.86195e-14
2.47663e-15
0.0536473
0.0525924
0.0516937
0.0509056
0.05017
0.0493989
0.0484376
0.0469708
0.0443296
0.0393958
0.0355108
0.0319414
0.0281738
0.0238115
0.0186052
0.0127686
0.00728636
0.00336469
0.0012764
0.000416132
0.000123512
3.48361e-05
9.55397e-06
2.57695e-06
6.87468e-07
1.81631e-07
4.74947e-08
1.22574e-08
3.10347e-09
7.62526e-10
1.80887e-10
4.60795e-11
1.62882e-11
8.13247e-12
4.21397e-12
1.84886e-12
6.29067e-13
1.54437e-13
2.44392e-14
1.87017e-15
0.0463886
0.0454422
0.0446773
0.0440529
0.0435156
0.0429881
0.0423432
0.0413539
0.0396202
0.0366117
0.0331547
0.0292657
0.0247071
0.0192939
0.013266
0.00761565
0.00355822
0.00137452
0.000457449
0.000138236
3.9545e-05
1.09752e-05
2.99758e-06
8.12935e-07
2.20298e-07
5.98943e-08
1.63791e-08
4.51084e-09
1.24976e-09
3.46612e-10
9.54253e-11
2.64757e-11
8.13247e-12
3.19309e-12
1.53673e-12
7.28306e-13
2.86752e-13
8.40498e-14
1.62092e-14
1.53043e-15
0.036452
0.0355334
0.0348123
0.0342468
0.0337818
0.033338
0.032794
0.0319573
0.0305306
0.0281522
0.024831
0.0205874
0.0155349
0.0102011
0.00560428
0.00255254
0.000985314
0.000335227
0.000104815
3.10596e-05
8.89831e-06
2.49934e-06
6.95719e-07
1.93615e-07
5.42854e-08
1.54364e-08
4.47599e-09
1.32917e-09
4.05014e-10
1.26351e-10
4.00309e-11