/*--------------------------------*- C++ -*----------------------------------*\
| =========                 |                                                 |
| \\      /  F ield         | OpenFOAM: The Open Source CFD Toolbox           |
|  \\    /   O peration     | Version:  2.1.0                                 |
|   \\  /    A nd           | Web:      www.OpenFOAM.org                      |
|    \\/     M anipulation  |                                                 |
\*---------------------------------------------------------------------------*/
FoamFile
{
    version     2.0;
    format      ascii;
    class       surfaceScalarField;
    location    "20075";
    object      phi_w;
}
// * * * * * * * * * * * * * * * * * * * * * * * * * * * * * * * * * * * * * //

dimensions      [1 -2 -2 0 0 0 0];

internalField   nonuniform List<scalar> 
22000
(
13.5063
13.5062
-21.4303
22.7589
12.0609
-16.3716
27.8084
10.0908
-10.8649
30.0917
8.20515
-6.74955
30.8925
6.61664
-4.08888
31.0357
5.33805
-2.46989
30.9876
4.31829
-1.50361
30.991
3.49905
-0.924635
31.1597
2.83265
-0.573299
31.5365
2.28505
-0.357089
32.1257
1.83396
-0.221119
32.9101
1.46469
-0.13282
33.8611
1.16671
-0.0731615
34.9457
0.931525
-0.0312184
36.1286
0.751453
-0.000983897
37.3771
0.619712
0.0227356
38.6603
0.531019
0.0430774
39.9485
0.481718
0.0618837
41.2123
0.47009
0.080428
42.4206
0.496547
0.0996505
43.539
0.563752
0.120327
44.5276
0.676624
0.143187
45.3397
0.84211
0.16896
45.9202
1.06856
0.198361
46.2063
1.36452
0.232048
46.1291
1.73664
0.270524
45.6198
2.18656
0.314006
44.6192
2.70696
0.362307
43.0941
3.27908
0.414219
41.0545
3.87228
0.463483
38.567
4.44863
0.490286
35.7525
4.97332
0.444827
32.7364
5.42417
0.229095
29.6026
5.78718
-0.264472
26.2949
6.05529
-1.02136
22.3273
6.21576
-1.78816
17.4456
6.28789
-1.76741
11.8865
6.32612
-0.955014
6.00514
6.34744
-0.494332
6.35687
-0.353407
12.061
22.7588
-16.3715
20.7888
20.7887
-12.9993
25.9227
17.8905
-8.98627
28.5032
14.9214
-5.77727
29.6139
12.2796
-3.59526
30.0159
10.0607
-2.21618
30.1683
8.23101
-1.36874
30.3246
6.72203
-0.849899
30.6121
5.46854
-0.530428
31.0854
4.42218
-0.331406
31.7564
3.55082
-0.204625
32.6121
2.83315
-0.121208
33.626
2.25287
-0.0640919
34.7656
1.79516
-0.0235233
35.9969
1.44535
0.0061006
37.2884
1.1903
0.0299544
38.611
1.01937
0.0508158
39.9369
0.925122
0.070426
41.2388
0.904051
0.0899804
42.4878
0.956985
0.110382
43.6518
1.08938
0.132391
44.6931
1.3114
0.15673
45.5661
1.63754
0.184101
46.2162
2.08571
0.215146
46.5784
2.67504
0.250416
46.579
3.42178
0.290316
46.1402
4.33266
0.33503
45.1913
5.39664
0.384624
43.6873
6.57703
0.437755
41.6308
7.80751
0.487406
39.0917
9.0007
0.511807
36.2033
10.072
0.456631
33.0994
10.9659
0.217068
29.8707
11.654
-0.310992
26.4553
12.1389
-1.09737
22.3994
12.4333
-1.85072
17.4838
12.587
-1.76458
11.9078
12.6679
-0.938721
6.01458
12.7074
-0.491702
12.7232
-0.352954
10.091
27.8083
-10.8651
17.8906
25.9226
-8.9863
22.9537
22.9536
-6.53739
25.8614
19.6943
-4.41013
27.395
16.6079
-2.85901
28.1862
13.8748
-1.82046
28.6594
11.5197
-1.15162
29.0712
9.50428
-0.727382
29.5657
7.77888
-0.459099
30.214
6.30491
-0.287843
31.0388
5.05823
-0.176092
32.0318
4.0235
-0.100761
33.1682
3.18579
-0.0480378
34.4158
2.52671
-0.010015
35.7419
2.0251
0.0187493
37.1175
1.66134
0.0428682
38.5167
1.41888
0.0646284
39.9158
1.28609
0.0855554
41.2917
1.25745
0.106726
42.6202
1.33412
0.128973
43.8739
1.52443
0.153017
45.0192
1.84409
0.179518
46.0143
2.3162
0.209073
46.8055
2.9704
0.242187
47.3251
3.84035
0.279245
47.4899
4.95805
0.320512
47.2042
6.34392
0.366305
46.3717
7.99224
0.416866
44.9178
9.85194
0.470354
42.824
11.8124
0.518583
40.1631
13.7118
0.537065
37.0972
15.385
0.465796
33.7876
16.73
0.193219
30.3556
17.7133
-0.374193
26.7498
18.3689
-1.18886
22.553
18.7535
-1.92377
17.5647
18.9534
-1.7694
11.9473
19.051
-0.92633
6.03037
19.0918
-0.489871
19.1054
-0.352924
8.20526
30.0917
-6.74965
14.9215
28.5032
-5.77727
19.6944
25.8613
-4.41013
22.7749
22.7748
-3.1252
24.6619
19.6701
-2.11755
25.8312
16.7653
-1.39809
26.6439
14.1359
-0.90954
27.3458
11.7861
-0.586426
28.0917
9.69942
-0.374583
28.9673
7.86506
-0.234579
30.004
6.28512
-0.140051
31.1941
4.96562
-0.074197
32.5092
3.9004
-0.0268782
33.9142
3.06805
0.00809984
35.3781
2.44045
0.0363796
36.875
1.98926
0.0611216
38.3839
1.69072
0.0842476
39.8872
1.52834
0.10703
41.3684
1.49422
0.130384
42.8106
1.58963
0.155036
44.1935
1.82558
0.181596
45.4913
2.22345
0.210594
46.6685
2.81574
0.242456
47.6755
3.64619
0.277477
48.4428
4.76812
0.315854
48.8758
6.23909
0.357866
48.8525
8.10932
0.404091
48.2314
10.3972
0.454453
46.8782
13.0512
0.506346
44.7235
15.9075
0.550169
41.8362
18.6814
0.558535
38.4421
21.0552
0.465954
34.7709
22.8626
0.156037
31.0112
24.0912
-0.446993
27.1344
24.844
-1.28341
22.753
25.2451
-1.9979
17.6622
25.4274
-1.78044
11.9881
25.4938
-0.919197
6.04395
25.5052
-0.48954
25.5016
-0.353443
6.61669
30.8925
-4.0889
12.2796
29.6138
-3.59527
16.608
27.3949
-2.85902
19.6702
24.6618
-2.11756
21.7572
21.7571
-1.49476
23.2018
18.889
-1.02182
24.2941
16.1567
-0.683531
25.2591
13.5967
-0.44937
26.2574
11.2255
-0.288952
27.3874
9.06975
-0.178257
28.6845
7.17697
-0.100263
30.1289
5.59656
-0.0438491
31.6768
4.33585
-0.00220711
33.2866
3.36714
0.0307768
34.9269
2.64873
0.0591327
36.5765
2.13937
0.0851694
38.2216
1.80593
0.110354
39.8531
1.62626
0.13567
41.4638
1.58978
0.161815
43.0465
1.69752
0.189318
44.5914
1.9626
0.218594
46.0836
2.41135
0.249953
47.499
3.08527
0.283588
48.7974
4.04316
0.319593
49.9138
5.36318
0.358191
50.746
7.14192
0.399964
51.1404
9.48308
0.445228
50.8854
12.4665
0.493242
49.7346
16.0817
0.540382
47.4973
20.1208
0.575436
44.21
24.0855
0.568205
40.2496
27.3173
0.448722
35.9996
29.5723
0.0986102
31.7639
30.9377
-0.532283
27.5355
31.6573
-1.38262
22.9352
31.9574
-2.07382
17.7286
32.0283
-1.79457
11.9996
31.9962
-0.914434
6.04041
31.9358
-0.489799
31.8949
-0.353995
5.33808
31.0356
-2.4699
10.0607
30.0158
-2.2162
13.8749
28.1862
-1.82048
16.7654
25.8311
-1.39811
18.8891
23.2017
-1.02183
20.4694
20.4693
-0.720222
21.7341
17.7292
-0.493397
22.8879
15.028
-0.328353
24.1016
12.4008
-0.209465
25.4946
9.91199
-0.12316
27.1041
7.68126
-0.0593923
28.8682
5.84829
-0.0114942
30.7081
4.43105
0.0260925
32.5682
3.37715
0.0583779
34.4175
2.61684
0.0878987
36.243
2.08902
0.116253
38.0419
1.74901
0.144434
39.8166
1.56882
0.173044
41.5716
1.53546
0.202412
43.3116
1.64955
0.232696
45.0401
1.92515
0.263964
46.7575
2.39111
0.296248
48.4568
3.09485
0.329567
50.1174
4.1091
0.364239
51.6925
5.53928
0.400798
53.0872
7.53076
0.439611
54.1238
10.2705
0.480458
54.5006
13.9645
0.521805
53.7737
18.7492
0.5589
51.462
24.4641
0.578833
47.4418
30.267
0.54895
42.5046
34.5799
0.396797
37.365
37.1567
0.00637293
32.4836
38.4253
-0.639762
27.8356
38.8852
-1.49448
23.0061
38.9082
-2.15527
17.6966
38.7432
-1.80717
11.9392
38.53
-0.907888
5.99949
38.3483
-0.489146
38.2471
-0.353676
4.31831
30.9875
-1.50363
8.23106
30.1683
-1.36877
11.5198
28.6593
-1.15165
14.136
26.6438
-0.909561
16.1567
24.294
-0.683543
17.7293
21.734
-0.493401
19.0328
19.0327
-0.342847
20.2608
16.2185
-0.227218
21.6128
13.3147
-0.139096
23.2639
10.4032
-0.0715117
25.2712
7.7154
-0.0192287
27.451
5.62569
0.0224412
29.6542
4.11713
0.0586671
31.8079
3.05835
0.0920828
33.8897
2.32655
0.124333
35.903
1.83381
0.156347
37.8617
1.52422
0.188523
39.7832
1.36611
0.220815
41.6857
1.34594
0.252806
43.5872
1.46421
0.283901
45.5061
1.73376
0.313603
47.4613
2.18236
0.34192
49.4711
2.85887
0.369325
51.5476
3.84214
0.396185
53.684
5.2553
0.422901
55.8269
7.28835
0.449859
57.8177
10.2312
0.476714
59.2852
14.501
0.502001
59.4886
20.6057
0.520736
57.2648
28.816
0.518635
51.7548
38.0004
0.460883
45.0813
43.5939
0.275561
38.6336
46.0473
-0.135894
32.9435
46.7179
-0.784665
27.8586
46.5479
-1.63132
22.8411
46.0565
-2.24629
17.4833
45.5114
-1.81041
11.7575
45.0299
-0.894308
5.89832
44.6787
-0.485599
44.496
-0.351312
3.49906
30.991
-0.924649
6.72207
30.3246
-0.849921
9.50434
29.0711
-0.727406
11.7862
27.3457
-0.586443
13.5967
25.259
-0.44938
15.028
22.8879
-0.328357
16.2186
20.2607
-0.227219
17.3569
17.3568
-0.144834
18.7013
14.1279
-0.0781966
20.5761
10.5871
-0.024415
23.1814
7.08486
0.0197411
25.9424
4.77195
0.059394
28.5954
3.31805
0.096861
31.0761
2.39082
0.133563
33.397
1.78887
0.170267
35.5934
1.4009
0.207104
37.7036
1.16799
0.243463
39.7631
1.06132
0.277961
41.8039
1.07092
0.308464
43.8567
1.20028
0.332843
45.9547
1.4623
0.350063
48.1378
1.87758
0.360276
50.4544
2.48417
0.363739
52.9608
3.34833
0.360497
55.7171
4.58201
0.351706
58.7698
6.37898
0.340529
62.0876
9.10135
0.329068
65.39
13.4151
0.320296
67.6989
20.5312
0.313688
66.4493
32.3176
0.294881
57.3483
49.3818
0.222447
47.5347
55.7209
0.0222715
39.3042
56.7154
-0.364754
32.7734
55.8445
-0.988908
27.3672
54.5258
-1.80793
22.296
53.2601
-2.34826
17.0019
52.2055
-1.79174
11.4063
51.3884
-0.868172
5.71563
50.8347
-0.477152
50.5571
-0.345731
2.83266
31.1596
-0.573313
5.46858
30.612
-0.530446
7.77893
29.5656
-0.459116
9.69948
28.0917
-0.374595
11.2256
26.2573
-0.288958
12.4009
24.1015
-0.209468
13.3147
21.6127
-0.139096
14.128
18.7012
-0.0781966
15.1605
15.1604
-0.0262469
17.0738
10.6603
0.0181801
20.8685
5.21799
0.0589096
24.4885
3.03395
0.0995762
27.6682
1.98904
0.1406
30.4741
1.41763
0.182127
33.009
1.08062
0.223865
35.3605
0.880365
0.264745
37.5969
0.775811
0.302127
39.7727
0.754883
0.331947
41.9333
0.823279
0.348419
44.1187
0.995694
0.344378
46.37
1.28309
0.314678
48.7444
1.67456
0.2608
51.3185
2.16563
0.184877
54.1944
2.77231
0.0887208
57.514
3.5543
-0.0186705
61.4921
4.66058
-0.115652
66.4013
6.4023
-0.193513
72.5062
9.4935
-0.239624
79.4852
15.7678
-0.246395
83.5135
30.5915
-0.229626
63.6873
71.5829
-0.250991
48.5292
73.2188
-0.382681
38.4333
69.2377
-0.697273
31.4547
65.3986
-1.26903
26.1015
62.433
-2.03541
21.2414
60.2365
-2.45345
16.1848
58.626
-1.7332
10.8527
57.4599
-0.825442
5.43798
56.7027
-0.462307
56.331
-0.336072
2.28507
31.5364
-0.3571
4.42221
31.0853
-0.331419
6.30495
30.2139
-0.287854
7.86511
28.9672
-0.234586
9.06981
27.3873
-0.17826
9.91205
25.4945
-0.123161
10.4033
23.2638
-0.0715118
10.5872
20.5759
-0.024415
10.6604
17.0737
0.01818
11.6315
11.6313
0.0582671
18.6845
6.07705
0.0930048
23.4436
11.3678
0.134674
27.0968
15.2713
0.178314
30.1371
18.9
0.22209
32.8088
22.4963
0.264251
35.256
26.1515
0.30285
37.576
29.9046
0.332425
39.841
33.7584
0.341611
42.1057
37.6772
0.311079
44.4061
41.5896
0.216528
46.7614
45.4143
0.0436186
49.2355
49.1229
-0.178758
51.9252
52.7643
-0.4158
54.9764
56.47
-0.642116
58.6203
60.464
-0.831047
63.2338
65.0994
-0.964666
69.4925
71.0196
-1.04053
78.7805
79.7198
-1.06508
94.3089
95.5589
-1.04479
124.505
133.85
-0.983041
65.3233
134.019
-0.952888
44.5482
96.5594
-0.926637
34.5943
81.6162
-1.11987
28.489
74.0531
-1.61995
23.9051
69.5435
-2.30935
19.6309
66.586
-2.53442
15.0187
64.5316
-1.6167
10.0954
63.0862
-0.766664
5.0663
62.1663
-0.440748
61.7192
-0.321971
1.83397
32.1256
-0.221126
3.55085
31.7564
-0.204633
5.05826
31.0387
-0.176098
6.28516
30.0039
-0.140054
7.17702
28.6844
-0.100264
7.68132
27.104
-0.0593923
7.71546
25.271
-0.0192285
7.08493
23.1813
0.0197411
5.21804
20.8684
0.0589092
6.07726
18.6843
0.0930042
23.9753
23.975
-0.836445
27.3471
38.0526
-1.24857
30.7254
48.5451
-1.68557
33.7335
57.0088
-2.14055
36.4639
64.1897
-2.62776
39.0091
70.493
-3.15598
41.4297
76.1602
-3.72826
43.7599
81.3592
-4.3363
46.0181
86.2338
-4.95036
48.2308
90.9324
-5.50936
50.47
95.6201
-5.92094
52.8769
100.465
-6.09629
55.6309
105.613
-6.0178
58.9705
111.21
-5.72702
63.2558
117.43
-5.31543
69.1539
124.516
-4.91848
78.1927
132.813
-4.71486
94.6196
142.56
-4.94802
132.6
152.414
-5.90699
124.674
150.932
-6.94188
27.8632
110.659
-1.4701
29.605
97.0555
-1.36285
27.0311
86.6129
-1.53224
23.9794
79.68
-2.01052
20.9476
75.0921
-2.60693
17.5765
71.9618
-2.54059
13.5733
69.7255
-1.44201
9.17553
68.1409
-0.698533
4.61915
67.1323
-0.413509
66.6418
-0.303594
1.4647
32.91
-0.132824
2.83317
32.612
-0.121212
4.02353
32.0318
-0.100764
4.96566
31.194
-0.0741978
5.5966
30.1288
-0.0438488
5.84834
28.8681
-0.0114937
5.62574
27.4508
0.0224415
4.77199
25.9423
0.0593939
3.03399
24.4884
0.0995756
11.3679
23.4434
0.134673
38.0529
27.3469
-1.24858
37.8395
37.8393
-0.661564
39.1892
47.0929
-0.630134
40.9143
55.1815
-0.711868
42.7673
62.3233
-0.835567
44.6764
68.7326
-0.985045
46.6287
74.5776
-1.15505
48.6345
79.9893
-1.3409
50.7168
85.0771
-1.5339
52.9185
89.9429
-1.71726
55.3147
94.6849
-1.86752
58.0254
99.3958
-1.96315
61.2281
104.156
-1.99671
65.1895
109.029
-1.97718
70.3425
114.044
-1.9281
77.4502
119.155
-1.88519
87.9404
124.082
-1.89297
104.473
127.867
-1.99104
131.118
127.707
-2.15564
84.4014
116.62
-2.10643
14.2599
100.155
-1.7662
19.1625
94.4058
-1.7292
20.0982
88.1494
-1.94491
19.3914
83.0234
-2.43069
17.8173
79.1794
-2.87929
15.3402
76.3239
-2.40631
11.9887
74.1465
-1.23756
8.16693
72.5679
-0.629302
4.12873
71.5503
-0.382127
71.052
-0.28154
1.16672
33.8611
-0.0731646
2.25288
33.6259
-0.0640939
3.18581
33.1682
-0.0480385
3.90043
32.5091
-0.0268778
4.33588
31.6767
-0.00220641
4.43109
30.708
0.0260931
4.11716
29.6541
0.0586672
3.31808
28.5953
0.0968606
1.98906
27.6681
0.140599
15.2714
27.0967
0.178313
48.5453
30.7253
-1.68558
47.0931
39.189
-0.630136
47.2778
47.2777
-0.408933
48.0562
54.746
-0.367052
49.1766
61.5639
-0.385376
50.5214
67.7971
-0.431996
52.0403
73.5334
-0.495196
53.7223
78.8584
-0.568649
55.5826
83.8497
-0.646464
57.6605
88.5768
-0.722896
60.0256
93.1011
-0.790104
62.7859
97.471
-0.841633
66.1004
101.713
-0.875673
70.2049
105.816
-0.895338
75.4535
109.702
-0.908917
82.3768
113.159
-0.929671
91.7254
115.703
-0.973546
104.313
116.331
-1.05565
120.031
113.179
-1.19415
67.9361
103.599
-1.48122
8.5107
95.1079
-2.04624
12.906
92.3306
-2.09899
14.9723
88.6525
-2.38466
15.5474
85.166
-2.85717
14.9618
82.2369
-3.02825
13.1628
79.8194
-2.10508
10.4101
77.8474
-1.04377
7.14934
76.379
-0.562982
3.63047
75.4155
-0.347676
74.939
-0.256561
0.93153
34.9456
-0.0312207
1.79517
34.7655
-0.0235243
2.52673
34.4157
-0.0100149
3.06808
33.9141
0.0081006
3.36716
33.2865
0.0307776
3.37718
32.5681
0.0583783
3.05837
31.8078
0.0920827
2.39085
31.076
0.133562
1.41764
30.474
0.182126
18.9
30.137
0.222089
57.009
33.7333
-2.14056
55.1817
40.9142
-0.711871
54.7462
48.056
-0.367053
54.8741
54.8739
-0.257072
55.4097
61.2523
-0.225301
56.2577
67.1755
-0.227543
57.3653
72.6717
-0.246726
58.7136
77.7846
-0.275108
60.3097
82.5608
-0.307841
62.1848
87.0428
-0.34161
64.3955
91.2635
-0.373354
67.0277
95.2394
-0.401045
70.2037
98.9607
-0.424387
74.0912
102.374
-0.445174
78.9101
105.352
-0.468124
84.921
107.648
-0.501272
92.3535
108.826
-0.556882
101.161
108.182
-0.658927
110.451
104.764
-0.87455
59.4455
97.7744
-1.43975
5.73344
92.7484
-2.35692
9.22785
91.2729
-2.50166
11.4858
89.0945
-2.84293
12.6182
86.7989
-3.20304
12.5443
84.6357
-2.91165
11.1908
82.6376
-1.71738
8.94171
80.9313
-0.881675
6.18579
79.628
-0.498792
3.15401
78.7572
-0.310676
78.3225
-0.229392
0.751456
36.1286
-0.000986009
1.44536
35.9968
0.00609993
2.02511
35.7418
0.0187495
2.44047
35.378
0.0363802
2.64875
34.9268
0.0591333
2.61686
34.4175
0.087899
2.32657
33.8896
0.124333
1.78889
33.3969
0.170267
1.08064
33.0089
0.223864
22.4964
32.8087
0.264249
64.1899
36.4638
-2.62777
62.3235
42.7671
-0.83557
61.5641
49.1764
-0.385378
61.2524
55.4096
-0.225302
61.3329
61.3328
-0.161871
61.7539
66.8936
-0.13971
62.4782
72.0838
-0.137431
63.4897
76.9173
-0.145176
64.7917
81.4162
-0.157827
66.4055
85.6014
-0.172879
68.3714
89.4856
-0.188645
70.749
93.0658
-0.204053
73.6166
96.313
-0.219618
77.0692
99.1584
-0.237329
81.2066
101.475
-0.26113
86.0992
103.054
-0.29899
91.7095
103.582
-0.366554
97.7431
102.648
-0.499002
103.461
99.84
-0.793256
54.4195
95.0223
-1.54816
4.25797
91.8812
-2.67648
7.04949
91.056
-2.90262
9.19018
89.7486
-3.22588
10.455
88.2196
-3.28778
10.5462
86.5794
-2.47716
9.48442
84.9394
-1.36654
7.63841
83.5034
-0.746547
5.31504
82.3835
-0.434464
2.71926
81.6243
-0.271561
81.2422
-0.200663
0.619714
37.377
0.0227334
1.19031
37.2884
0.0299537
1.66135
37.1174
0.0428683
1.98928
36.8749
0.0611221
2.13939
36.5764
0.0851698
2.08903
36.243
0.116253
1.83383
35.9029
0.156346
1.40091
35.5934
0.207103
0.880374
35.3604
0.264744
26.1515
35.2559
0.302848
70.4932
39.0091
-3.15599
68.7328
44.6763
-0.985049
67.7973
50.5213
-0.431998
67.1756
56.2576
-0.227544
66.8938
61.7538
-0.13971
66.944
66.9439
-0.101659
67.3118
71.8019
-0.0868398
67.9886
76.3232
-0.0837112
68.9769
80.5137
-0.0864589
70.2897
84.3805
-0.0925238
71.9516
87.9239
-0.100319
73.9961
91.131
-0.10941
76.4621
93.9679
-0.120711
79.3861
96.3707
-0.136211
82.7856
98.2364
-0.16042
86.6268
99.4157
-0.202877
90.7753
99.7162
-0.282951
94.9352
98.9333
-0.44452
98.6436
96.9326
-0.800492
51.2784
93.7967
-1.67208
3.43273
91.8579
-2.89829
5.74213
91.3818
-3.16066
7.6612
90.5602
-3.32421
8.81482
89.4671
-2.94147
8.90621
88.1638
-1.91788
8.04837
86.8328
-1.08937
6.51853
85.6495
-0.624558
4.55584
84.714
-0.368658
2.3372
84.0739
-0.230979
83.7502
-0.17095
0.53102
38.6602
0.0430751
1.01937
38.6109
0.050815
1.41889
38.5167
0.0646284
1.69073
38.3839
0.0842478
1.80595
38.2215
0.110354
1.74902
38.0418
0.144434
1.52423
37.8616
0.188522
1.168
37.7035
0.243462
0.775819
37.5969
0.302126
29.9047
37.5759
0.332423
76.1604
41.4297
-3.72827
74.5778
46.6286
-1.15506
73.5336
52.0403
-0.495198
72.6718
57.3652
-0.246727
72.0839
62.4782
-0.137431
71.802
67.3117
-0.08684
71.8332
71.8331
-0.0635805
72.1791
76.0298
-0.0540424
72.8436
79.8998
-0.0512294
73.8331
83.4429
-0.0524919
75.1587
86.6541
-0.0562586
76.833
89.5188
-0.0620594
78.8649
92.007
-0.0710064
81.2518
94.0691
-0.0854919
83.9649
95.6337
-0.110525
86.9273
96.6097
-0.157118
89.9924
96.898
-0.247494
92.9345
96.422
-0.430504
95.5077
95.1811
-0.82169
49.3396
93.3169
-1.71479
2.95654
92.1968
-2.8405
4.92057
91.904
-3.0517
6.56807
91.3303
-2.94729
7.51154
90.4794
-2.28175
7.57522
89.4423
-1.44642
6.8651
88.3831
-0.86063
5.58303
87.4358
-0.507309
3.91575
86.683
-0.302002
2.01346
86.1664
-0.190028
85.9047
-0.141135
0.481718
39.9485
0.0618813
0.925127
39.9369
0.070425
1.2861
39.9158
0.0855551
1.52835
39.8871
0.10703
1.62627
39.853
0.13567
1.56883
39.8165
0.173043
1.36612
39.7832
0.220815
1.06133
39.763
0.27796
0.75489
39.7726
0.331946
33.7585
39.841
0.34161
81.3593
43.7598
-4.33632
79.9894
48.6344
-1.34091
78.8586
53.7222
-0.568651
77.7848
58.7135
-0.275109
76.9174
63.4897
-0.145176
76.3233
67.9886
-0.0837115
76.0298
72.1791
-0.0540425
76.0492
76.0491
-0.0399592
76.3867
79.5954
-0.0337361
77.0444
82.8166
-0.0323187
78.0233
85.7083
-0.0338103
79.3212
88.2587
-0.0376941
80.927
90.4462
-0.0452897
82.8164
92.2383
-0.0591655
84.9408
93.5937
-0.0844961
87.2156
94.4678
-0.13308
89.5164
94.8259
-0.228433
91.6936
94.6644
-0.419547
93.6435
94.0406
-0.809633
48.2194
93.0882
-1.61178
2.6638
92.5093
-2.41654
4.34688
92.3111
-2.50586
5.71711
91.88
-2.23407
6.47443
91.2239
-1.6455
6.51603
90.4342
-1.07206
5.91783
89.6312
-0.657237
4.83026
88.9166
-0.394137
3.39911
88.3509
-0.236862
1.75179
87.9641
-0.150297
87.7686
-0.11237
0.470089
41.2123
0.0804256
0.904054
41.2388
0.0899792
1.25746
41.2917
0.106725
1.49423
41.3684
0.130384
1.58979
41.4638
0.161815
1.53547
41.5715
0.202411
1.34595
41.6856
0.252805
1.07093
41.8039
0.308462
0.823285
41.9332
0.348418
37.6773
42.1057
0.311078
86.2339
46.0181
-4.95037
85.0772
50.7168
-1.5339
83.8499
55.5826
-0.646467
82.5609
60.3097
-0.307843
81.4163
64.7917
-0.157828
80.5138
68.9769
-0.0864592
79.8999
72.8436
-0.0512295
79.5954
76.3867
-0.0337361
79.6079
79.6079
-0.0251875
79.936
82.5101
-0.0220441
80.5737
85.0924
-0.0221165
81.5087
87.3488
-0.0247849
82.7191
89.2668
-0.0313534
84.1718
90.8296
-0.0442068
85.815
92.0197
-0.0684904
87.5737
92.8257
-0.115792
89.3549
93.2535
-0.208272
91.0698
93.3386
-0.389087
92.6911
93.1567
-0.737516
47.6406
92.8091
-1.3674
2.46563
92.57
-1.80136
3.91579
92.438
-1.79107
5.06104
92.1405
-1.54099
5.68467
91.6888
-1.14047
5.71309
91.1505
-0.757496
5.20316
90.6134
-0.47457
4.26459
90.1443
-0.289426
3.0123
89.7794
-0.176471
1.55632
89.5335
-0.113471
89.4103
-0.0856313
0.496546
42.4206
0.0996481
0.956988
42.4878
0.11038
1.33413
42.6202
0.128973
1.58964
42.8105
0.155036
1.69753
43.0465
0.189318
1.64956
43.3115
0.232695
1.46422
43.5871
0.2839
1.20029
43.8567
0.332841
0.995701
44.1187
0.344377
41.5897
44.4061
0.216527
90.9326
48.2308
-5.50938
89.9431
52.9185
-1.71726
88.5769
57.6605
-0.722898
87.0429
62.1848
-0.341611
85.6015
66.4055
-0.17288
84.3806
70.2897
-0.092524
83.4429
73.8331
-0.0524919
82.8167
77.0444
-0.0323187
82.5101
79.936
-0.022044
82.5184
82.5184
-0.0176633
82.8301
84.7966
-0.0166689
83.4268
86.7703
-0.0182366
84.2819
88.4347
-0.0235812
85.3618
89.7843
-0.0347397
86.6211
90.8176
-0.0563601
88.0015
91.5444
-0.0984005
89.44
91.9939
-0.179061
90.8879
92.221
-0.33048
92.3434
92.3036
-0.602251
47.4014
92.3157
-1.02767
2.33366
92.2871
-1.20667
3.61833
92.2285
-1.16013
4.60927
92.0868
-0.984892
5.14642
91.8675
-0.732698
5.17597
91.6137
-0.496456
4.73407
91.3735
-0.318809
3.89966
91.1777
-0.198872
2.76645
91.0364
-0.123873
1.43314
90.9478
-0.0811872
90.9057
-0.0619428
0.563751
43.539
0.120325
1.08939
43.6518
0.13239
1.52443
43.8738
0.153016
1.82558
44.1935
0.181596
1.96261
44.5914
0.218593
1.92516
45.0401
0.263963
1.73377
45.5061
0.313602
1.46231
45.9547
0.350062
1.2831
46.37
0.314677
45.4144
46.7614
0.0436177
95.6203
50.47
-5.92095
94.6851
55.3147
-1.86753
93.1013
60.0256
-0.790107
91.2636
64.3955
-0.373355
89.4857
68.3714
-0.188646
87.924
71.9516
-0.100319
86.6542
75.1587
-0.0562585
85.7083
78.0234
-0.0338101
85.0924
80.5737
-0.0221163
84.7966
82.8301
-0.0166688
84.8038
84.8038
-0.0147355
85.0912
86.4985
-0.015227
85.6314
87.9134
-0.0190716
86.3951
89.0485
-0.0278478
87.3479
89.9108
-0.0453237
88.451
90.5205
-0.0788651
89.6671
90.9184
-0.14092
90.9705
91.1684
-0.250661
92.3555
91.349
-0.429833
47.3729
91.5266
-0.66352
2.27501
91.6218
-0.706402
3.47659
91.6608
-0.662657
4.39006
91.7175
-0.559314
4.89254
91.7836
-0.423243
4.93582
91.8654
-0.296195
4.5382
91.9679
-0.196894
3.75836
92.0845
-0.126673
2.67787
92.1981
-0.0810771
1.39107
92.2887
-0.0543739
92.3391
-0.0420245
0.676623
44.5276
0.143185
1.3114
44.6931
0.156729
1.84409
45.0192
0.179517
2.22346
45.4913
0.210594
2.41136
46.0836
0.249953
2.39112
46.7575
0.296247
2.18237
47.4613
0.34192
1.87759
48.1378
0.360275
1.67457
48.7444
0.260799
49.123
49.2355
-0.178759
100.465
52.8769
-6.0963
99.396
58.0254
-1.96315
97.4712
62.786
-0.841635
95.2395
67.0277
-0.401046
93.066
70.749
-0.204054
91.1311
73.9962
-0.10941
89.5189
76.833
-0.0620591
88.2587
79.3212
-0.0376938
87.3488
81.5087
-0.0247845
86.7703
83.4268
-0.0182362
86.4985
85.0912
-0.0152268
86.506
86.5061
-0.0144963
86.7666
87.6695
-0.0165344
87.2574
88.5806
-0.0224428
87.9576
89.2461
-0.0348644
88.8489
89.6879
-0.0584365
89.9171
89.9503
-0.0998859
91.1511
90.1025
-0.167432
92.5331
90.2318
-0.264049
47.468
90.4229
-0.359335
2.31402
90.5812
-0.344936
3.53331
90.7518
-0.319235
4.45609
91.0635
-0.272973
4.97436
91.4791
-0.214934
5.03837
91.9592
-0.158257
4.65474
92.4619
-0.110311
3.87198
92.9409
-0.0737263
2.76842
93.3501
-0.0483992
1.44151
93.6486
-0.0328937
93.8061
-0.0256071
0.842109
45.3397
0.168957
1.63754
45.5661
0.1841
2.31621
46.0143
0.209072
2.81575
46.6685
0.242455
3.08528
47.499
0.283588
3.09486
48.4569
0.329567
2.85889
49.4711
0.369324
2.48418
50.4544
0.363738
2.16564
51.3185
0.184877
52.7644
51.9252
-0.4158
105.613
55.6309
-6.01781
104.157
61.2281
-1.99672
101.713
66.1005
-0.875675
98.9609
70.2037
-0.424388
96.3131
73.6167
-0.219618
93.968
76.4621
-0.120711
92.007
78.865
-0.0710059
90.4463
80.9271
-0.0452891
89.2669
82.7192
-0.0313527
88.4347
84.2819
-0.0235806
87.9133
85.6315
-0.0190711
87.6695
86.7667
-0.0165342
87.6777
87.6778
-0.0161349
87.9228
88.3549
-0.0187327
88.3994
88.7961
-0.0259547
89.1113
89.0162
-0.0400673
90.0693
89.0563
-0.0636437
91.2804
88.9905
-0.0981582
92.7242
88.9267
-0.138436
47.6263
88.9962
-0.158681
2.48468
89.1672
-0.131091
3.84502
89.5107
-0.121838
4.87161
90.1451
-0.109164
5.45453
90.9883
-0.0925997
5.54106
91.946
-0.073343
5.13375
92.9231
-0.0539477
4.28121
93.8303
-0.037051
3.06692
94.5884
-0.0241088
1.59897
95.1325
-0.0155809
95.4164
-0.0114487
1.06856
45.9203
0.198359
2.08572
46.2162
0.215145
2.97041
46.8055
0.242186
3.64621
47.6755
0.277477
4.04317
48.7974
0.319593
4.10912
50.1174
0.364239
3.84215
51.5476
0.396185
3.34835
52.9608
0.360497
2.77232
54.1945
0.0887206
56.4701
54.9765
-0.642117
111.211
58.9705
-5.72703
109.029
65.1896
-1.97718
105.816
70.205
-0.89534
102.374
74.0913
-0.445175
99.1586
77.0693
-0.237328
96.3708
79.3862
-0.13621
94.0692
81.2519
-0.085491
92.2383
82.8165
-0.0591645
90.8296
84.1719
-0.0442058
89.7843
85.3619
-0.0347388
89.0485
86.3952
-0.027847
88.5806
87.2575
-0.0224423
88.3548
87.9229
-0.0187324
88.364
88.3641
-0.0175755
88.6195
88.5608
-0.0198852
89.1514
88.5106
-0.0262702
90.0035
88.2415
-0.0369912
91.2166
87.8286
-0.050609
92.7938
87.4102
-0.0608875
47.7974
87.1937
-0.0521804
2.8282
87.3137
-0.0291958
4.47944
87.8873
-0.0284775
5.71474
88.939
-0.029566
6.41223
90.3199
-0.0291548
6.51821
91.8653
-0.0253768
6.04097
93.4193
-0.0187467
5.03926
94.8435
-0.0113808
3.61101
96.0213
-0.00481666
1.88293
96.8606
4.95833e-05
97.2969
0.00254101
1.36452
46.2063
0.232046
2.67505
46.5784
0.250415
3.84036
47.3252
0.279244
4.76813
48.4429
0.315854
5.3632
49.9139
0.358191
5.5393
51.6926
0.400798
5.25532
53.6841
0.422901
4.58202
55.7171
0.351707
3.55431
57.5141
-0.0186706
60.4641
58.6204
-0.831048
117.43
63.2558
-5.31544
114.044
70.3426
-1.9281
109.702
75.4536
-0.908918
105.352
78.9102
-0.468124
101.475
81.2067
-0.26113
98.2365
82.7857
-0.160419
95.6338
83.965
-0.110523
93.5937
84.941
-0.0844948
92.0197
85.8152
-0.0684891
90.8176
86.6212
-0.0563588
89.9107
87.3481
-0.0453225
89.246
87.9578
-0.0348635
88.796
88.3995
-0.025954
88.5607
88.6197
-0.0198848
88.5693
88.5694
-0.0171115
88.8824
88.2149
-0.0173581
89.5906
87.5534
-0.0198483
90.7982
86.6438
-0.0224305
92.5773
85.6513
-0.0201731
47.9174
84.8902
-0.00556741
3.40177
84.8509
0.0097331
5.53123
85.7495
0.00814831
7.09556
87.3701
0.00460802
7.95762
89.4557
0.00192786
8.07221
91.7485
0.0021377
7.46524
94.0212
0.00513047
6.21707
96.0821
0.00954788
4.45032
97.774
0.0141702
2.31916
98.9739
0.0179115
99.5961
0.0199137
1.73664
46.1292
0.270522
3.42179
46.5791
0.290315
4.95807
47.49
0.320511
6.2391
48.8758
0.357866
7.14194
50.7461
0.399964
7.53078
53.0872
0.439611
7.28837
55.827
0.44986
6.379
58.7698
0.340529
4.66059
61.4922
-0.115651
65.0996
63.2339
-0.964667
124.517
69.154
-4.91849
119.155
77.4503
-1.88519
113.159
82.3769
-0.929672
107.648
84.9211
-0.501272
103.054
86.0993
-0.298989
99.4158
86.627
-0.202876
96.6098
86.9274
-0.157116
94.4679
87.2158
-0.133078
92.8258
87.5739
-0.115791
91.5444
88.0017
-0.0983989
90.5204
88.4512
-0.0788636
89.6878
88.8491
-0.0584352
89.0162
89.1115
-0.0400662
88.5105
89.1516
-0.0262694
88.2147
88.8826
-0.0173576
88.2209
88.221
-0.012382
88.681
87.103
-0.00971131
89.8056
85.5265
-0.00706796
91.8162
83.6416
-0.000862811
47.878
81.8857
0.0121359
4.30039
81.4762
0.0222466
7.15181
82.8767
0.0214455
9.18118
85.3205
0.0202124
10.2504
88.3661
0.0201388
10.3449
91.6317
0.0225234
9.52614
94.8128
0.0271449
7.90895
97.666
0.0331093
5.65027
99.9936
0.0392461
2.94131
101.639
0.0441493
102.49
0.0468275
2.18656
45.6199
0.314004
4.33267
46.1403
0.33503
6.34394
47.2043
0.366305
8.10934
48.8526
0.404091
9.4831
51.1405
0.445228
10.2705
54.1239
0.480458
10.2312
57.8178
0.476715
9.10137
62.0876
0.329069
6.40232
66.4014
-0.193513
71.0197
69.4926
-1.04053
132.813
78.1928
-4.71488
124.082
87.9405
-1.89297
115.703
91.7255
-0.973547
108.826
92.3536
-0.556881
103.582
91.7096
-0.366552
99.7163
90.7755
-0.282949
96.8981
89.9926
-0.247492
94.826
89.5166
-0.228431
93.2535
89.3551
-0.20827
91.9939
89.4402
-0.179059
90.9184
89.6673
-0.140918
89.9502
89.9173
-0.0998842
89.0563
90.0695
-0.0636422
88.2414
90.0037
-0.0369899
87.5532
89.5908
-0.0198473
87.1028
88.6812
-0.00971078
87.1046
87.1048
-0.00349252
87.9206
84.7091
0.0017042
90.0603
81.4928
0.00884799
47.4686
77.9287
0.0202326
5.70082
76.6872
0.0280839
9.59563
78.9523
0.0295377
12.2268
82.6566
0.0326283
13.516
87.0387
0.0380888
13.5261
91.5753
0.046363
12.3794
95.9025
0.056933
10.2365
99.7401
0.0688133
7.29546
102.854
0.0802751
3.79301
105.052
0.0892868
106.189
0.0942322
2.70696
44.6192
0.362306
5.39665
45.1914
0.384624
7.99226
46.3718
0.416866
10.3972
48.2315
0.454453
12.4665
50.8854
0.493243
13.9645
54.5007
0.521806
14.501
59.2853
0.502003
13.4151
65.3901
0.320298
9.49352
72.5063
-0.239623
79.72
78.7806
-1.06508
142.561
94.6198
-4.94803
127.867
104.473
-1.99104
116.331
104.313
-1.05565
108.182
101.162
-0.658926
102.648
97.7433
-0.499
98.9334
94.9354
-0.444517
96.4221
92.9347
-0.430501
94.6645
91.6938
-0.419544
93.3386
91.0699
-0.389085
92.221
90.8881
-0.330478
91.1684
90.9707
-0.250659
90.1024
91.1513
-0.16743
88.9904
91.2806
-0.0981563
87.8285
91.2168
-0.0506073
86.6437
90.7984
-0.022429
85.5264
89.8058
-0.00706681
84.7089
87.9209
0.00170484
84.7044
84.7046
0.00838727
86.4962
79.6839
0.0163502
46.227
72.8585
0.0281751
7.96592
69.6003
0.0363506
13.2999
73.577
0.0413094
16.609
79.2965
0.0508877
18.0526
85.5299
0.0651851
17.8532
91.6907
0.0840825
16.2169
97.432
0.106623
13.3509
102.475
0.131002
9.49288
106.559
0.154117
4.93022
109.442
0.172326
110.937
0.182389
3.27909
43.0942
0.414218
6.57704
43.6873
0.437755
9.85196
44.9178
0.470355
13.0512
46.8783
0.506346
16.0817
49.7347
0.540383
18.7492
53.7738
0.558901
20.6058
59.4887
0.520738
20.5313
67.6991
0.31369
15.7679
79.4854
-0.246394
95.5591
94.3091
-1.04479
152.414
132.6
-5.907
127.707
131.118
-2.15565
113.179
120.032
-1.19415
104.764
110.451
-0.874548
99.8401
103.461
-0.793254
96.9327
98.6438
-0.800489
95.1812
95.5079
-0.821688
94.0406
93.6437
-0.80963
93.1568
92.6913
-0.737514
92.3037
92.3436
-0.602249
91.349
92.3557
-0.429832
90.2317
92.5333
-0.264047
88.9266
92.7245
-0.138434
87.4101
92.794
-0.0608852
85.6511
92.5775
-0.0201709
83.6414
91.8165
-0.000860926
81.4926
90.0606
0.0088494
79.6837
86.4965
0.016351
79.6708
79.6711
0.0260447
42.9688
67.4028
0.0401501
11.9427
58.4575
0.0510121
19.0194
66.4384
0.0618765