/*--------------------------------*- C++ -*----------------------------------*\
| =========                 |                                                 |
| \\      /  F ield         | OpenFOAM: The Open Source CFD Toolbox           |
|  \\    /   O peration     | Version:  2.1.0                                 |
|   \\  /    A nd           | Web:      www.OpenFOAM.org                      |
|    \\/     M anipulation  |                                                 |
\*---------------------------------------------------------------------------*/
FoamFile
{
    version     2.0;
    format      ascii;
    class       volScalarField;
    location    "20075";
    object      po;
}
// * * * * * * * * * * * * * * * * * * * * * * * * * * * * * * * * * * * * * //

dimensions      [1 -1 -2 0 0 0 0];

internalField   nonuniform List<scalar> 
8000
(
13732.8
13719.3
13696.6
13668.7
13638.7
13607.8
13576.7
13545.7
13514.7
13483.6
13452.1
13419.9
13387
13353.2
13318.2
13282.1
13244.7
13206
13166.1
13124.9
13082.5
13038.9
12994.4
12949.1
12903.1
12856.9
12810.8
12765.2
12720.6
12677.5
12636.4
12597.8
12562.1
12529.4
12499.8
12473.5
12451.1
12433.7
12421.8
12415.8
13719.3
13707.3
13686.5
13660.5
13632
13602.4
13572.4
13542.2
13511.9
13481.3
13450.2
13418.5
13385.8
13352.2
13317.5
13281.5
13244.2
13205.6
13165.6
13124.4
13081.9
13038.2
12993.6
12948
12901.8
12855.2
12808.6
12762.5
12717.3
12673.6
12632
12592.9
12556.7
12523.6
12493.7
12467.2
12444.8
12427.4
12415.5
12409.4
13696.6
13686.5
13668.6
13645.6
13619.8
13592.4
13564.2
13535.5
13506.4
13476.9
13446.7
13415.6
13383.6
13350.4
13316
13280.3
13243.2
13204.6
13164.7
13123.4
13080.8
13036.9
12991.9
12945.9
12899.1
12851.8
12804.3
12757.1
12710.7
12665.8
12623
12582.8
12545.7
12511.9
12481.6
12454.8
12432.3
12414.7
12402.7
12396.7
13668.7
13660.5
13645.6
13625.9
13603.2
13578.5
13552.7
13526
13498.7
13470.6
13441.6
13411.6
13380.4
13347.9
13314
13278.6
13241.7
13203.4
13163.5
13122.1
13079.3
13035.1
12989.6
12942.9
12895.3
12846.8
12797.9
12749.1
12700.9
12654
12609.3
12567.4
12529
12494.2
12463.2
12436.1
12413.3
12395.6
12383.7
12377.6
13638.7
13632
13619.8
13603.2
13583.5
13561.7
13538.5
13514.2
13489
13462.7
13435.3
13406.6
13376.5
13344.8
13311.5
13276.6
13240
13201.8
13162
13120.5
13077.5
13032.9
12986.8
12939.3
12890.5
12840.6
12789.8
12738.7
12687.8
12638.1
12590.6
12546.4
12506.1
12470.1
12438.3
12410.8
12387.9
12370.1
12358.1
12352.1
13607.8
13602.4
13592.4
13578.5
13561.7
13542.8
13522.4
13500.6
13477.7
13453.6
13428.1
13401
13372.2
13341.5
13308.9
13274.5
13238.2
13200.2
13160.4
13118.8
13075.5
13030.5
12983.7
12935.2
12885.1
12833.4
12780.3
12726.2
12671.7
12617.9
12566.5
12519
12476.5
12439.2
12406.7
12378.9
12355.8
12338.2
12326.2
12320.2
13576.7
13572.4
13564.2
13552.7
13538.5
13522.4
13504.6
13485.6
13465.3
13443.7
13420.5
13395.2
13367.7
13338.1
13306.3
13272.4
13236.5
13198.6
13158.8
13117.2
13073.6
13028.1
12980.6
12931.1
12879.6
12825.9
12770.1
12712.3
12653
12593.5
12536.2
12484.5
12439.4
12400.7
12367.8
12339.9
12317.1
12299.6
12287.9
12282
13545.7
13542.2
13535.5
13526
13514.2
13500.6
13485.6
13469.4
13452
13433.3
13412.8
13389.6
13363.6
13335
13304
13270.6
13235
13197.3
13157.5
13115.7
13071.8
13025.9
12977.7
12927.3
12874.3
12818.6
12759.8
12697.8
12632.4
12564.7
12498.2
12440.9
12393.3
12354
12321.3
12293.9
12271.6
12254.6
12243.2
12237.5
13514.7
13511.9
13506.4
13498.7
13489
13477.7
13465.3
13452
13437.9
13422.7
13405.7
13384.8
13360.3
13332.6
13302.2
13269.2
13233.8
13196.2
13156.4
13114.5
13070.4
13024
12975.3
12923.9
12869.7
12812.2
12750.7
12684.3
12611.8
12532.3
12448.8
12385.1
12336.6
12298.2
12266.7
12240.6
12219.4
12203.2
12192.4
12186.9
13483.6
13481.3
13476.9
13470.6
13462.7
13453.6
13443.7
13433.3
13422.7
13412.1
13400.4
13381.8
13358.3
13331.2
13301.1
13268.3
13233
13195.4
13155.6
13113.5
13069.1
13022.3
12973.1
12921.2
12866.2
12807.6
12744.3
12674.8
12596.1
12501.8
12377.3
12311.9
12267.4
12232.8
12204.3
12180.4
12160.8
12145.7
12135.6
12130.6
13452.1
13450.2
13446.7
13441.6
13435.3
13428.1
13420.5
13412.8
13405.7
13400.4
13394.4
13370.4
13343
13312.3
13278.6
13242.1
13203.1
13161.7
13117.9
13071.9
13023.7
12973.2
12920.3
12864.7
12805.7
12742.5
12673.3
12595.1
12500.5
12367.9
12243.2
12215.4
12185.8
12158.7
12134.8
12113.8
12096.2
12082.7
12073.5
12068.9
13419.9
13418.5
13415.6
13411.6
13406.6
13401
13395.2
13389.6
13384.8
13381.8
13370.4
13332.3
13294.5
13255.3
13214.4
13171.6
13127
13080.3
13031.7
12981
12928.1
12872.7
12814.7
12753.5
12688.3
12618
12540.5
12452.6
12348.1
12217
12132.6
12118.3
12099.2
12079.1
12059.7
12041.8
12026.5
12014.5
12006.3
12002.2
13387
13385.9
13383.6
13380.4
13376.5
13372.2
13367.7
13363.6
13360.3
13358.3
13343
13294.5
13247.4
13200.1
13152.1
13102.9
13052.4
13000.3
12946.6
12891
12833.4
12773.3
12710.6
12644.5
12574.3
12498.8
12416.4
12324.7
12220.4
12100.4
12032.4
12023.9
12011
11996
11980.5
11965.5
11952.4
11941.9
11934.8
11931.2
13353.2
13352.2
13350.4
13347.9
13344.8
13341.5
13338.1
13335
13332.6
13331.2
13312.3
13255.3
13200.1
13145.4
13090.5
13035.1
12978.8
12921.5
12862.8
12802.5
12740.3
12675.9
12608.8
12538.6
12464.6
12385.6
12300.7
12208.4
12107.2
11996.8
11937.3
11931.6
11922.3
11910.9
11898.2
11885.7
11874.5
11865.6
11859.4
11856.2
13318.2
13317.5
13316
13314
13311.5
13308.9
13306.3
13304
13302.2
13301.1
13278.6
13214.4
13152.1
13090.5
13029.3
12967.9
12906.2
12843.7
12780.2
12715.4
12649
12580.6
12509.9
12436.3
12359.2
12278
12191.9
12100.2
12002.4
11899
11844.6
11840.3
11833.3
11824.1
11813.6
11803.1
11793.6
11785.9
11780.6
11777.9
13282.1
13281.5
13280.3
13278.6
13276.6
13274.5
13272.4
13270.6
13269.2
13268.3
13242.1
13171.6
13102.9
13035.1
12967.9
12901
12834.1
12766.8
12698.8
12629.8
12559.5
12487.6
12413.6
12337.1
12257.7
12174.9
12088.3
11997.5
11902.6
11804
11752.7
11749.2
11743.5
11735.8
11727
11718.1
11710.1
11703.6
11699
11696.7
13244.7
13244.2
13243.2
13241.7
13240
13238.2
13236.5
13235
13233.8
13233
13203.1
13127
13052.4
12978.8
12906.2
12834.1
12762.3
12690.5
12618.3
12545.4
12471.6
12396.4
12319.6
12240.7
12159.5
12075.5
11988.6
11898.6
11805.7
11710.2
11660.8
11657.9
11652.9
11646.4
11638.9
11631.3
11624.4
11618.8
11614.9
11612.9
13206
13205.6
13204.6
13203.4
13201.8
13200.2
13198.6
13197.3
13196.2
13195.4
13161.7
13080.3
13000.3
12921.5
12843.7
12766.8
12690.5
12614.4
12538.4
12462
12384.9
12306.9
12227.6
12146.7
12063.9
11978.9
11891.7
11802.2
11710.5
11616.8
11568.6
11566
11561.6
11555.9
11549.4
11542.9
11537
11532.2
11528.8
11527
13166.1
13165.6
13164.7
13163.5
13162
13160.4
13158.8
13157.5
13156.4
13155.6
13117.9
13031.7
12946.6
12862.8
12780.2
12698.8
12618.3
12538.4
12458.8
12379.2
12299.2
12218.7
12137.2
12054.4
11970.3
11884.4
11796.9
11707.5
11616.4
11523.8
11476.1
11473.7
11469.7
11464.7
11459
11453.3
11448.1
11443.8
11440.8
11439.2
13124.9
13124.4
13123.4
13122.1
13120.5
13118.8
13117.2
13115.7
13114.5
13113.5
13071.9
12981
12891
12802.5
12715.4
12629.8
12545.4
12462
12379.2
12296.7
12214.1
12131.3
12047.9
11963.6
11878.2
11791.6
11703.6
11614.2
11523.3
11430.9
11383.5
11381.2
11377.6
11373
11367.8
11362.7
11357.9
11354
11351.3
11349.8
13082.5
13081.9
13080.8
13079.3
13077.5
13075.5
13073.6
13071.8
13070.4
13069.1
13023.7
12928.1
12833.4
12740.3
12649
12559.5
12471.6
12384.9
12299.2
12214.1
12129.3
12044.5
11959.5
11873.8
11787.4
11700.1
11611.6
11522
11431
11338.6
11291.3
11289
11285.5
11281.1
11276.2
11271.3
11266.8
11263
11260.3
11258.9
13038.9
13038.2
13036.9
13035.1
13032.9
13030.5
13028.1
13025.9
13024
13022.3
12973.2
12872.7
12773.3
12675.9
12580.6
12487.6
12396.4
12306.9
12218.7
12131.3
12044.5
11958
11871.5
11784.8
11697.5
11609.6
11520.7
11430.8
11339.6
11247.1
11199.6
11197.3
11193.8
11189.3
11184.4
11179.3
11174.7
11170.8
11168
11166.6
12994.4
12993.6
12991.9
12989.6
12986.8
12983.7
12980.6
12977.7
12975.3
12973.1
12920.3
12814.7
12710.6
12608.8
12509.9
12413.6
12319.6
12227.6
12137.2
12047.9
11959.5
11871.5
11783.9
11696.2
11608.3
11519.9
11430.8
11340.7
11249.4
11156.7
11109.1
11106.6
11102.7
11097.9
11092.4
11086.9
11081.7
11077.4
11074.4
11072.8
12949.1
12948
12945.9
12942.9
12939.3
12935.2
12931.1
12927.3
12923.9
12921.2
12864.7
12753.5
12644.5
12538.6
12436.3
12337.1
12240.7
12146.7
12054.4
11963.6
11873.8
11784.8
11696.2
11607.8
11519.5
11430.9
11341.7
11251.7
11160.5
11067.7
11019.9
11017.1
11012.6
11006.9
11000.5
10993.9
10987.9
10982.9
10979.2
10977.4
12903.1
12901.8
12899.1
12895.3
12890.5
12885.1
12879.6
12874.3
12869.7
12866.2
12805.7
12688.3
12574.3
12464.6
12359.2
12257.7
12159.5
12063.9
11970.3
11878.2
11787.4
11697.5
11608.3
11519.5
11430.9
11342.3
11253.5
11163.9
11073.1
10980.5
10932.6
10929.2
10923.6
10916.5
10908.6
10900.5
10893.1
10886.8
10882.4
10880.1
12856.9
12855.2
12851.8
12846.8
12840.6
12833.4
12825.9
12818.6
12812.2
12807.6
12742.5
12618
12498.8
12385.6
12278
12174.9
12075.5
11978.9
11884.4
11791.6
11700.1
11609.6
11519.9
11430.9
11342.3
11254.1
11165.9
11077.2
10987.4
10895.6
10847.7
10843.4
10836.3
10827.1
10816.8
10806.5
10797
10789.1
10783.4
10780.5
12810.8
12808.6
12804.3
12797.9
12789.8
12780.3
12770.1
12759.8
12750.7
12744.3
12673.3
12540.5
12416.4
12300.7
12191.9
12088.3
11988.6
11891.7
11796.9
11703.6
11611.6
11520.7
11430.8
11341.7
11253.5
11165.9
11078.8
10991.7
10903.8
10813.7
10766.2
10760.5
10751
10738.7
10725.2
10711.7
10699.3
10689.1
10681.8
10678
12765.2
12762.5
12757.1
12749.1
12738.7
12726.2
12712.3
12697.8
12684.3
12674.8
12595.1
12452.6
12324.7
12208.4
12100.2
11997.5
11898.6
11802.2
11707.5
11614.2
11522
11430.8
11340.7
11251.7
11163.9
11077.2
10991.7
10907
10822.3
10735.8
10689.6
10681.6
10668.3
10651.7
10633.6
10615.8
10599.6
10586.2
10576.7
10571.8
12720.6
12717.3
12710.7
12700.9
12687.8
12671.7
12653
12632.4
12611.8
12596.1
12500.5
12348.1
12220.4
12107.2
12002.4
11902.6
11805.7
11710.5
11616.4
11523.3
11431
11339.6
11249.4
11160.5
11073.1
10987.4
10903.8
10822.3
10742.6
10662.9
10620
10608
10589
10566.2
10541.9
10518.3
10497.1
10479.7
10467.3
10460.9
12677.5
12673.6
12665.8
12654
12638.1
12617.9
12593.5
12564.7
12532.3
12501.8
12367.9
12217
12100.4
11996.8
11899
11804
11710.2
11616.8
11523.8
11430.9
11338.6
11247.1
11156.7
11067.7
10980.5
10895.6
10813.7
10735.8
10662.9
10595.5
10561.5
10541.6
10513.6
10482.1
10449.8
10418.8
10391
10368.3
10352.2
10343.8
12636.4
12632
12623
12609.3
12590.6
12566.5
12536.2
12498.2
12448.8
12377.3
12243.2
12132.6
12032.4
11937.3
11844.6
11752.7
11660.8
11568.6
11476.1
11383.5
11291.3
11199.6
11109.1
11019.9
10932.6
10847.7
10766.2
10689.6
10620
10561.5
10522.4
10483.3
10441.9
10399.1
10356.6
10316.3
10280.4
10251
10230
10219.1
12597.8
12592.9
12582.8
12567.4
12546.4
12519
12484.5
12440.9
12385.1
12311.9
12215.4
12118.3
12023.9
11931.6
11840.3
11749.2
11657.9
11566
11473.7
11381.2
11289
11197.3
11106.6
11017.1
10929.2
10843.4
10760.5
10681.6
10608
10541.6
10483.3
10427.5
10371.8
10316.1
10261.6
10210.1
10164.1
10126.1
10099
10084.8
12562.1
12556.7
12545.7
12529
12506.1
12476.5
12439.4
12393.3
12336.6
12267.4
12185.8
12099.2
12011
11922.3
11833.3
11743.5
11652.9
11561.6
11469.7
11377.6
11285.5
11193.8
11102.7
11012.6
10923.6
10836.3
10751
10668.3
10589
10513.6
10441.9
10371.8
10302
10232.5
10164.3
10099.6
10041.2
9992.48
9957.27
9938.73
12529.4
12523.6
12511.9
12494.2
12470.1
12439.2
12400.7
12354
12298.2
12232.8
12158.7
12079.1
11996
11910.9
11824.1
11735.8
11646.4
11555.9
11464.7
11373
11281.1
11189.3
11097.9
11006.9
10916.5
10827.1
10738.7
10651.7
10566.2
10482.1
10399.1
10316.1
10232.5
10148.4
10065.1
9984.81
9911.2
9848.9
9803.17
9778.83
12499.8
12493.7
12481.6
12463.2
12438.3
12406.7
12367.8
12321.3
12266.7
12204.3
12134.8
12059.7
11980.5
11898.2
11813.6
11727
11638.9
11549.4
11459
11367.8
11276.2
11184.4
11092.4
11000.5
10908.6
10816.8
10725.2
10633.6
10541.9
10449.8
10356.6
10261.6
10164.3
10065.1
9965.02
9866.81
9774.84
9695.3
9635.76
9603.6
12473.5
12467.2
12454.8
12436.1
12410.8
12378.9
12339.9
12293.9
12240.6
12180.4
12113.8
12041.8
11965.5
11885.7
11803.1
11718.1
11631.3
11542.9
11453.3
11362.7
11271.3
11179.3
11086.9
10993.9
10900.5
10806.5
10711.7
10615.8
10518.3
10418.8
10316.3
10210.1
10099.6
9984.81
9866.81
9748.36
9634.59
9533.57
9456.02
9413.32
12451.1
12444.8
12432.3
12413.3
12387.9
12355.8
12317.1
12271.6
12219.4
12160.8
12096.2
12026.5
11952.4
11874.5
11793.6
11710.1
11624.4
11537
11448.1
11357.9
11266.8
11174.7
11081.7
10987.9
10893.1
10797
10699.3
10599.6
10497.1
10391
10280.4
10164.1
10041.1
9911.2
9774.84
9634.59
9496.08
9369.28
9268.95
9212.32
12433.7
12427.4
12414.7
12395.6
12370.1
12338.2
12299.6
12254.6
12203.2
12145.7
12082.7
12014.5
11941.9
11865.6
11785.9
11703.6
11618.8
11532.2
11443.8
11354
11263
11170.8
11077.4
10982.9
10886.8
10789.1
10689.1
10586.2
10479.7
10368.3
10251
10126.1
9992.48
9848.9
9695.3
9533.57
9369.28
9213.96
9086.79
9012.82
12421.8
12415.5
12402.7
12383.7
12358.1
12326.2
12287.9
12243.2
12192.4
12135.6
12073.5
12006.3
11934.8
11859.4
11780.6
11699
11614.9
11528.8
11440.8
11351.3
11260.3
11168
11074.4
10979.2
10882.4
10783.4
10681.8
10576.7
10467.3
10352.2
10230
10099
9957.27
9803.17
9635.76
9456.02
9268.95
9086.79
8932.57
8839.86
12415.8
12409.4
12396.7
12377.6
12352.1
12320.2
12282
12237.5
12186.9
12130.6
12068.9
12002.2
11931.2
11856.2
11777.9
11696.7
11612.9
11527
11439.2
11349.8
11258.9
11166.6
11072.8
10977.4
10880.1
10780.5
10678
10571.8
10460.9
10343.8
10219.1
10084.8
9938.73
9778.83
9603.6
9413.32
9212.32
9012.82
8839.86
8733.09
13754.3
13735.7
13707.4
13675.5
13642.7
13610.2
13578.2
13546.7
13515.3
13483.9
13452.3
13420.1
13387.1
13353.2
13318.2
13282.1
13244.7
13206
13166
13124.8
13082.3
13038.8
12994.2
12948.9
12902.9
12856.7
12810.5
12764.8
12720.1
12677
12635.9
12597.4
12561.9
12529.6
12500.8
12475.2
12452.9
12434.6
12422.3
12416.1
13735.7
13720.3
13695.5
13666.3
13635.6
13604.6
13573.8
13543.1
13512.4
13481.6
13450.4
13418.6
13385.9
13352.2
13317.5
13281.4
13244.1
13205.5
13165.5
13124.3
13081.8
13038.1
12993.4
12947.8
12901.5
12854.9
12808.3
12762.1
12716.8
12673.1
12631.5
12592.4
12556.5
12523.9
12494.8
12469.1
12446.6
12428.3
12415.9
12409.8
13707.4
13695.5
13675.1
13650
13622.6
13594.2
13565.3
13536.2
13506.9
13477.2
13446.8
13415.7
13383.6
13350.4
13316
13280.2
13243.1
13204.6
13164.6
13123.3
13080.7
13036.8
12991.7
12945.7
12898.8
12851.5
12803.9
12756.7
12710.2
12665.3
12622.4
12582.3
12545.5
12512.3
12482.7
12456.7
12434
12415.6
12403.2
12397.1
13675.5
13666.3
13650
13629.1
13605.3
13579.9
13553.6
13526.6
13499
13470.8
13441.7
13411.7
13380.4
13347.9
13314
13278.5
13241.7
13203.2
13163.3
13121.9
13079.1
13034.9
12989.4
12942.7
12894.9
12846.5
12797.5
12748.6
12700.3
12653.4
12608.7
12566.9
12528.8
12494.6
12464.5
12438.1
12415.1
12396.6
12384.1
12378
13642.7
13635.6
13622.6
13605.3
13585
13562.7
13539.2
13514.7
13489.3
13462.9
13435.4
13406.7
13376.5
13344.8
13311.5
13276.5
13239.9
13201.7
13161.8
13120.3
13077.2
13032.6
12986.5
12939
12890.1
12840.2
12789.4
12738.2
12687.3
12637.5
12590
12545.9
12506
12470.6
12439.7
12412.9
12389.7
12371.1
12358.6
12352.5
13610.2
13604.6
13594.2
13579.9
13562.7
13543.6
13522.9
13501
13478
13453.8
13428.2
13401.1
13372.1
13341.4
13308.8
13274.4
13238.1
13200
13160.2
13118.6
13075.2
13030.2
12983.4
12934.9
12884.7
12833
12779.9
12725.7
12671.2
12617.4
12565.9
12518.6
12476.5
12439.8
12408.2
12381
12357.7
12339.1
12326.7
12320.6
13578.2
13573.8
13565.3
13553.6
13539.2
13522.9
13505
13485.8
13465.5
13443.8
13420.5
13395.2
13367.7
13338
13306.2
13272.2
13236.3
13198.4
13158.6
13116.9
13073.3
13027.7
12980.2
12930.7
12879.2
12825.5
12769.6
12711.8
12652.5
12593
12535.8
12484.2
12439.5
12401.5
12369.4
12342.2
12318.9
12300.5
12288.3
12282.3
13546.7
13543.1
13536.2
13526.6
13514.7
13501
13485.8
13469.5
13452.1
13433.4
13412.7
13389.5
13363.5
13334.9
13303.8
13270.4
13234.7
13197
13157.2
13115.4
13071.5
13025.5
12977.4
12926.9
12874
12818.3
12759.5
12697.4
12632.1
12564.4
12498
12440.8
12393.7
12355
12323.1
12296.2
12273.4
12255.5
12243.7
12237.8
13515.3
13512.4
13506.9
13499
13489.3
13478
13465.5
13452.1
13437.9
13422.7
13405.6
13384.7
13360.2
13332.5
13301.9
13268.9
13233.5
13195.9
13156.1
13114.1
13070.1
13023.7
12975.1
12923.9
12869.8
12812.3
12750.9
12684.6
12612.1
12532.6
12449.1
12385.5
12337.3
12299.5
12268.8
12243.1
12221.1
12204
12192.8
12187.2
13483.9
13481.6
13477.2
13470.8
13462.9
13453.8
13443.8
13433.4
13422.7
13412
13400.4
13381.6
13358.1
13331
13300.8
13268
13232.7
13195.1
13155.3
13113.3
13069
13022.5
12973.5
12921.8
12867
12808.5
12745.4
12675.9
12597.1
12502.7
12378.2
12312.9
12268.5
12234.4
12206.6
12182.9
12162.4
12146.5
12136.1
12130.9
13452.3
13450.4
13446.8
13441.7
13435.4
13428.2
13420.5
13412.7
13405.6
13400.4
13395.2
13371.6
13344.7
13314.5
13281.2
13245.3
13206.8
13166
13122.9
13077.4
13029.6
12979.3
12926.3
12870.4
12811
12747.4
12678
12600.1
12506.4
12374.8
12244.7
12216.7
12187.3
12160.7
12137.4
12116.3
12097.7
12083.4
12073.9
12069.2
13420.1
13418.6
13415.7
13411.7
13406.7
13401.1
13395.2
13389.5
13384.7
13381.6
13371.6
13333
13295.1
13256
13215.2
13172.6
13128.1
13081.7
13033.2
12982.7
12929.9
12874.7
12816.7
12755.5
12690.2
12619.8
12542.4
12454.6
12350.2
12219.1
12134.3
12120
12101.1
12081.5
12062.5
12044.3
12027.7
12015.1
12006.7
12002.5
13387.1
13385.9
13383.6
13380.4
13376.5
13372.1
13367.7
13363.5
13360.2
13358.1
13344.7
13295.1
13247.8
13200.5
13152.5
13103.3
13052.9
13000.9
12947.3
12891.8
12834.2
12774.2
12711.4
12645.4
12575.2
12499.7
12417.4
12325.8
12221.6
12101.8
12034.5
12026
12013.4
11998.9
11983.5
11967.6
11953.4
11942.5
11935.1
11931.4
13353.2
13352.2
13350.4
13347.9
13344.8
13341.4
13338
13334.9
13332.5
13331
13314.5
13256
13200.5
13145.6
13090.7
13035.3
12979.1
12921.8
12863.1
12802.8
12740.6
12676.3
12609.3
12539.1
12465
12386.1
12301.3
12209
12108.1
11998.2
11939.7
11934.1
11925.2
11914.1
11901.2
11887.4
11875.4
11866.1
11859.7
11856.5
13318.2
13317.5
13316
13314
13311.5
13308.8
13306.2
13303.8
13301.9
13300.8
13281.2
13215.2
13152.5
13090.7
13029.4
12968.1
12906.3
12843.8
12780.4
12715.6
12649.2
12580.8
12510.1
12436.5
12359.5
12278.3
12192.3
12100.7
12003.2
11900.5
11847.2
11843.2
11836.5
11827.4
11816.1
11804.4
11794.3
11786.4
11780.9
11778.1
13282.1
13281.4
13280.2
13278.5
13276.5
13274.4
13272.2
13270.4
13268.9
13268
13245.3
13172.6
13103.3
13035.3
12968.1
12901.1
12834.2
12766.9
12698.9
12629.9
12559.6
12487.7
12413.7
12337.2
12257.9
12175.1
12088.6
11998
11903.4
11805.6
11755.6
11752.4
11746.8
11738.8
11728.9
11719.2
11710.7
11703.9
11699.2
11696.8
13244.7
13244.1
13243.1
13241.7
13239.9
13238.1
13236.3
13234.7
13233.5
13232.7
13206.8
13128.1
13052.9
12979.1
12906.3
12834.2
12762.4
12690.5
12618.3
12545.5
12471.7
12396.5
12319.7
12240.8
12159.6
12075.7
11988.8
11899
11806.5
11711.9
11663.7
11660.9
11655.9
11648.7
11640.3
11632.2
11624.9
11619.1
11615.1
11613.1
13206
13205.5
13204.6
13203.2
13201.7
13200
13198.4
13197
13195.9
13195.1
13166
13081.7
13000.9
12921.8
12843.8
12766.9
12690.5
12614.5
12538.4
12462
12385
12307
12227.6
12146.7
12063.9
11979
11891.9
11802.6
11711.3
11618.5
11571
11568.5
11563.9
11557.5
11550.5
11543.6
11537.4
11532.4
11528.9
11527.1
13166
13165.5
13164.6
13163.3
13161.8
13160.2
13158.6
13157.2
13156.1
13155.3
13122.9
13033.2
12947.3
12863.1
12780.4
12698.9
12618.3
12538.4
12458.8
12379.2
12299.3
12218.7
12137.2
12054.5
11970.3
11884.6
11797.1
11707.9
11617.2
11525.1
11477.9
11475.4
11471.3
11465.8
11459.7
11453.8
11448.4
11444
11440.9
11439.3
13124.8
13124.3
13123.3
13121.9
13120.3
13118.6
13116.9
13115.4
13114.2
13113.3
13077.4
12982.7
12891.8
12802.8
12715.6
12629.9
12545.5
12462
12379.2
12296.7
12214.2
12131.3
12047.9
11963.6
11878.3
11791.7
11703.8
11614.5
11523.9
11432
11384.8
11382.4
11378.6
11373.7
11368.3
11363
11358.1
11354.2
11351.3
11349.9
13082.3
13081.8
13080.7
13079.1
13077.2
13075.2
13073.3
13071.5
13070.1
13069
13029.6
12929.9
12834.2
12740.6
12649.2
12559.6
12471.7
12385
12299.3
12214.2
12129.4
12044.6
11959.5
11873.8
11787.5
11700.2
11611.8
11522.2
11431.4
11339.3
11292
11289.6
11286.1
11281.5
11276.5
11271.5
11266.9
11263.1
11260.4
11259
13038.8
13038.1
13036.8
13034.9
13032.6
13030.2
13027.7
13025.5
13023.7
13022.5
12979.3
12874.7
12774.2
12676.3
12580.8
12487.7
12396.5
12307
12218.7
12131.3
12044.6
11958.1
11871.6
11784.8
11697.5
11609.6
11520.8
11431
11339.9
11247.5
11200
11197.6
11194.1
11189.6
11184.5
11179.4
11174.7
11170.8
11168.1
11166.6
12994.2
12993.4
12991.7
12989.4
12986.5
12983.4
12980.2
12977.4
12975.1
12973.5
12926.3
12816.7
12711.4
12609.3
12510.1
12413.7
12319.7
12227.6
12137.2
12047.9
11959.5
11871.6
11783.9
11696.2
11608.3
11519.9
11430.8
11340.8
11249.5
11156.8
11109.2
11106.7
11102.8
11097.9
11092.5
11086.9
11081.8
11077.5
11074.4
11072.8
12948.9
12947.8
12945.7
12942.7
12939
12934.9
12930.7
12926.9
12923.9
12921.8
12870.4
12755.5
12645.4
12539.1
12436.5
12337.2
12240.8
12146.7
12054.5
11963.6
11873.8
11784.8
11696.2
11607.9
11519.5
11430.9
11341.7
11251.7
11160.5
11067.7
11019.9
11017.1
11012.6
11006.9
11000.5
10994
10987.9
10982.9
10979.2
10977.4
12902.9
12901.5
12898.8
12894.9
12890.1
12884.7
12879.2
12874
12869.8
12867
12811
12690.2
12575.2
12465
12359.5
12257.9
12159.6
12063.9
11970.3
11878.3
11787.5
11697.5
11608.3
11519.5
11430.9
11342.4
11253.5
11163.9
11073.1
10980.5
10932.6
10929.2
10923.6
10916.5
10908.6
10900.5
10893
10886.8
10882.4
10880
12856.7
12854.9
12851.5
12846.5
12840.2
12833
12825.5
12818.3
12812.4
12808.5
12747.4
12619.8
12499.7
12386.1
12278.3
12175.1
12075.7
11979
11884.6
11791.7
11700.2
11609.6
11519.9
11430.9
11342.4
11254.1
11165.9
11077.2
10987.4
10895.6
10847.7
10843.4
10836.3
10827.1
10816.8
10806.5
10796.9
10789
10783.4
10780.4
12810.5
12808.3
12803.9
12797.5
12789.4
12779.9
12769.6
12759.5
12750.9
12745.4
12678
12542.4
12417.4
12301.3
12192.3
12088.6
11988.8
11891.9
11797.1
11703.8
11611.8
11520.8
11430.8
11341.7
11253.5
11165.9
11078.8
10991.7
10903.8
10813.7
10766.2
10760.5
10750.9
10738.7
10725.2
10711.6
10699.2
10689
10681.7
10677.9
12764.8
12762.1
12756.7
12748.6
12738.2
12725.7
12711.8
12697.4
12684.6
12675.9
12600.1
12454.6
12325.8
12209
12100.7
11998
11899
11802.6
11707.9
11614.5
11522.2
11431
11340.8
11251.7
11163.9
11077.2
10991.7
10907
10822.3
10735.8
10689.5
10681.6
10668.2
10651.6
10633.6
10615.7
10599.4
10586.1
10576.5
10571.6
12720.1
12716.8
12710.2
12700.3
12687.3
12671.2
12652.5
12632.1
12612.1
12597.1
12506.4
12350.2
12221.6
12108.1
12003.2
11903.4
11806.5
11711.3
11617.2
11523.9
11431.4
11339.9
11249.5
11160.5
11073.1
10987.4
10903.8
10822.3
10742.6
10662.9
10619.9
10608
10588.9
10566
10541.8
10518.2
10496.8
10479.4
10466.9
10460.5
12677
12673.1
12665.3
12653.4
12637.5
12617.4
12593
12564.4
12532.6
12502.7
12374.8
12219.1
12101.8
11998.2
11900.5
11805.6
11711.9
11618.5
11525.1
11432
11339.3
11247.5
11156.8
11067.7
10980.5
10895.6
10813.7
10735.8
10662.9
10595.5
10561.4
10541.5
10513.5
10481.9
10449.5
10418.4
10390.6
10367.8
10351.6
10343.2
12635.9
12631.5
12622.4
12608.7
12590
12565.9
12535.8
12498
12449.1
12378.2
12244.7
12134.3
12034.5
11939.7
11847.2
11755.6
11663.7
11571
11477.9
11384.8
11292
11200
11109.2
11019.9
10932.6
10847.7
10766.2
10689.5
10619.9
10561.4
10522.3
10483.1
10441.7
10398.8
10356.1
10315.7
10279.6
10249.9
10228.8
10217.8
12597.4
12592.4
12582.3
12566.9
12545.9
12518.6
12484.2
12440.8
12385.5
12312.9
12216.7
12120
12026
11934.1
11843.2
11752.4
11660.9
11568.5
11475.4
11382.4
11289.6
11197.6
11106.7
11017.1
10929.2
10843.4
10760.5
10681.6
10608
10541.5
10483.1
10427.2
10371.4
10315.5
10260.8
10209
10162.5
10124.2
10096.7
10082.3
12561.9
12556.5
12545.5
12528.8
12506
12476.5
12439.5
12393.7
12337.3
12268.5
12187.3
12101.1
12013.4
11925.2
11836.5
11746.8
11655.9
11563.8
11471.3
11378.6
11286.1
11194.1
11102.8
11012.6
10923.6
10836.3
10750.9
10668.2
10588.9
10513.5
10441.7
10371.4
10301.4
10231.6
10163
10097.6
10038.4
9988.91
9952.99
9934.01
12529.6
12523.9
12512.3
12494.6
12470.6
12439.8
12401.5
12355
12299.5
12234.4
12160.7
12081.5
11998.9
11914.1
11827.4
11738.8
11648.7
11557.5
11465.8
11373.7
11281.5
11189.5
11097.9
11006.9
10916.5
10827.1
10738.7
10651.6
10566
10481.9
10398.8
10315.5
10231.6
10147
10062.8
9981.38
9906.3
9842.35
9795.1
9769.81
12500.8
12494.8
12482.7
12464.5
12439.7
12408.2
12369.4
12323.1
12268.8
12206.6
12137.4
12062.5
11983.5
11901.2
11816.1
11728.9
11640.3
11550.5
11459.7
11368.3
11276.5
11184.5
11092.5
11000.5
10908.6
10816.8
10725.2
10633.5
10541.8
10449.5
10356.1
10260.8
10163
10062.8
9961.32
9861.04
9766.28
9683.44
9620.71
9586.49
12475.2
12469.1
12456.7
12438.1
12412.9
12381
12342.2
12296.2
12243.1
12182.9
12116.3
12044.3
11967.6
11887.4
11804.4
11719.2
11632.2
11543.6
11453.8
11363
11271.5
11179.4
11086.9
10994
10900.5
10806.5
10711.6
10615.7
10518.2
10418.4
10315.7
10209
10097.6
9981.38
9861.04
9738.98
9620.1
9512.65
9428.51
9381.34
12452.9
12446.6
12434
12415.1
12389.7
12357.7
12318.9
12273.4
12221.1
12162.4
12097.7
12027.7
11953.4
11875.4
11794.3
11710.7
11624.9
11537.4
11448.4
11358.1
11266.9
11174.7
11081.8
10987.9
10893
10796.9
10699.2
10599.4
10496.8
10390.6
10279.6
10162.5
10038.4
9906.3
9766.28
9620.1
9472.65
9333.85
9220.34
9154.19
12434.6
12428.3
12415.6
12396.6
12371.1
12339.1
12300.5
12255.5
12204
12146.5
12083.4
12015.1
11942.5
11866.1
11786.4
11703.9
11619.1
11532.4
11444
11354.2
11263.1
11170.8
11077.5
10982.9
10886.8
10789
10689
10586.1
10479.4
10367.8
10249.9
10124.2
9988.91
9842.35
9683.44
9512.65
9333.85
9157.64
9005.66
8912.31
12422.3
12415.9
12403.2
12384.1
12358.6
12326.7
12288.3
12243.7
12192.8
12136.1
12073.9
12006.7
11935.1
11859.7
11780.9
11699.2
11615.1
11528.9
11440.9
11351.3
11260.4
11168.1
11074.4
10979.2
10882.4
10783.4
10681.7
10576.5
10466.9
10351.6
10228.8
10096.7
9952.99
9795.1
9620.71
9428.51
9220.34
9005.66
8809.54
8680.95
12416.1
12409.8
12397.1
12378
12352.5
12320.6
12282.3
12237.8
12187.2
12130.9
12069.2
12002.5
11931.4
11856.5
11778.1
11696.8
11613.1
11527.1
11439.3
11349.9
11259
11166.6
11072.8
10977.4
10880
10780.4
10677.9
10571.6
10460.5
10343.2
10217.8
10082.3
9934.01
9769.81
9586.49
9381.34
9154.19
8912.31
8680.95
8519.55
13806.1
13770.8
13728.3
13687.5
13649.6
13614.2
13580.6
13548.1
13516.2
13484.5
13452.6
13420.3
13387.2
13353.3
13318.2
13282.1
13244.6
13205.9
13165.9
13124.7
13082.2
13038.6
12994.1
12948.7
12902.7
12856.4
12810.2
12764.5
12719.8
12676.7
12635.6
12597.2
12561.9
12529.9
12501.5
12476.5
12454.6
12436.1
12423.1
12416.7
13770.8
13746.1
13712
13676.4
13641.6
13608.2
13575.9
13544.4
13513.3
13482.2
13450.7
13418.8
13386
13352.3
13317.5
13281.4
13244.1
13205.4
13165.5
13124.2
13081.6
13037.9
12993.2
12947.6
12901.3
12854.6
12808
12761.8
12716.5
12672.8
12631.1
12592.2
12556.4
12524.2
12495.5
12470.3
12448.4
12429.8
12416.8
12410.4
13728.3
13712
13686.6
13657.5
13627.3
13597.1
13567.1
13537.4
13507.6
13477.6
13447.1
13415.9
13383.7
13350.5
13316
13280.2
13243
13204.5
13164.5
13123.2
13080.5
13036.6
12991.5
12945.4
12898.6
12851.2
12803.6
12756.3
12709.9
12664.9
12622.1
12582.1
12545.5
12512.6
12483.5
12458
12435.8
12417.1
12404.1
12397.6
13687.5
13676.4
13657.5
13634.2
13608.7
13582.1
13555
13527.5
13499.6
13471.2
13442
13411.8
13380.5
13347.9
13313.9
13278.5
13241.6
13203.1
13163.2
13121.8
13078.9
13034.7
12989.1
12942.4
12894.7
12846.1
12797.2
12748.3
12700
12653.1
12608.4
12566.8
12528.9
12495
12465.3
12439.4
12417
12398.1
12385
12378.5
13649.6
13641.6
13627.3
13608.7
13587.4
13564.4
13540.3
13515.4
13489.7
13463.2
13435.6
13406.8
13376.6
13344.8
13311.4
13276.5
13239.8
13201.6
13161.7
13120.1
13077
13032.4
12986.2
12938.7
12889.8
12839.8
12789
12737.8
12686.9
12637.1
12589.7
12545.8
12506.1
12471
12440.6
12414.3
12391.6
12372.6
12359.5
12353
13614.2
13608.2
13597.1
13582.1
13564.4
13544.7
13523.6
13501.5
13478.3
13454
13428.3
13401.1
13372.2
13341.4
13308.7
13274.3
13238
13199.9
13160
13118.4
13075
13029.9
12983.1
12934.6
12884.4
12832.7
12779.5
12725.3
12670.8
12617.1
12565.7
12518.6
12476.7
12440.3
12409.1
12382.5
12359.6
12340.6
12327.5
12321.1
13580.6
13575.9
13567.1
13555
13540.3
13523.6
13505.5
13486.2
13465.7
13443.9
13420.6
13395.2
13367.7
13337.9
13306.1
13272.1
13236.1
13198.2
13158.4
13116.6
13073
13027.5
12980
12930.5
12878.9
12825.2
12769.3
12711.5
12652.2
12592.7
12535.6
12484.2
12439.7
12402.1
12370.4
12343.7
12321
12302.1
12289.2
12282.9
13548.1
13544.4
13537.4
13527.5
13515.4
13501.5
13486.2
13469.8
13452.3
13433.4
13412.8
13389.5
13363.5
13334.8
13303.6
13270.2
13234.5
13196.8
13157
13115.1
13071.2
13025.3
12977.2
12926.7
12873.8
12818.1
12759.3
12697.3
12631.9
12564.3
12498
12441
12394
12355.6
12324.1
12297.9
12275.5
12257
12244.5
12238.4
13516.2
13513.3
13507.6
13499.6
13489.7
13478.3
13465.7
13452.3
13438
13422.7
13405.6
13384.6
13360.1
13332.3
13301.8
13268.7
13233.3
13195.6
13155.8
13113.9
13069.9
13023.6
12975
12923.8
12869.7
12812.4
12751
12684.6
12612.1
12532.7
12449.2
12385.8
12337.8
12300.2
12269.9
12244.8
12223.4
12205.5
12193.6
12187.8
13484.5
13482.2
13477.6
13471.2
13463.2
13454
13443.9
13433.4
13422.7
13412
13400.3
13381.5
13358
13330.8
13300.6
13267.8
13232.5
13194.9
13155.1
13113.1
13068.9
13022.5
12973.6
12921.9
12867.2
12808.8
12745.7
12676.3
12597.5
12503.1
12378.6
12313.4
12269.2
12235.3
12207.9
12184.9
12164.7
12147.9
12136.8
12131.4
13452.6
13450.8
13447.1
13442
13435.6
13428.3
13420.6
13412.8
13405.6
13400.3
13395.7
13372.4
13345.8
13315.8
13282.8
13247.2
13209.1
13168.7
13125.9
13080.8
13033.4
12983.5
12930.9
12875.3
12816.2
12752.9
12684
12606.6
12513.8
12382.3
12245.7
12217.6
12188.3
12161.9
12138.9
12118.6
12100.1
12084.7
12074.6
12069.7
13420.3
13418.8
13415.9
13411.8
13406.8
13401.1
13395.2
13389.5
13384.6
13381.5
13372.4
13333.7
13295.8
13256.8
13216.1
13173.6
13129.3
13083
13034.7
12984.4
12931.8
12876.7
12818.9
12757.7
12692.6
12622.3
12545
12457.4
12353.2
12221.6
12135.6
12121.2
12102.3
12082.9
12064.4
12046.9
12030.1
12016.3
12007.4
12003
13387.2
13386
13383.7
13380.5
13376.6
13372.2
13367.7
13363.5
13360.1
13358
13345.8
13295.8
13248.3
13201
13153
13103.9
13053.5
13001.6
12948.1
12892.6
12835.1
12775.2
12712.6
12646.5
12576.4
12501.1
12418.8
12327.3
12223.2
12103.4
12036
12027.4
12014.8
12000.6
11985.8
11970.7
11955.6
11943.5