/*--------------------------------*- C++ -*----------------------------------*\
| =========                 |                                                 |
| \\      /  F ield         | OpenFOAM: The Open Source CFD Toolbox           |
|  \\    /   O peration     | Version:  2.1.0                                 |
|   \\  /    A nd           | Web:      www.OpenFOAM.org                      |
|    \\/     M anipulation  |                                                 |
\*---------------------------------------------------------------------------*/
FoamFile
{
    version     2.0;
    format      ascii;
    class       volScalarField;
    location    "20075";
    object      sw;
}
// * * * * * * * * * * * * * * * * * * * * * * * * * * * * * * * * * * * * * //

dimensions      [0 0 0 0 0 0 0];

internalField   nonuniform List<scalar> 
8000
(
0.693731
0.679106
0.661578
0.643208
0.62506
0.607638
0.591124
0.575556
0.560935
0.547255
0.53449
0.52259
0.511493
0.501128
0.491427
0.482329
0.47375
0.465608
0.457828
0.450335
0.44306
0.435929
0.428866
0.421788
0.414595
0.407168
0.399353
0.390942
0.381644
0.371017
0.358387
0.342764
0.322924
0.297996
0.267295
0.234433
0.210956
0.20205
0.200229
0.200012
0.679108
0.666141
0.650411
0.633664
0.616865
0.600503
0.584799
0.569842
0.555689
0.542368
0.529875
0.518181
0.507239
0.496989
0.487379
0.478344
0.469805
0.461684
0.453908
0.446405
0.439107
0.431945
0.424844
0.417725
0.410491
0.403026
0.395181
0.38675
0.377429
0.366758
0.354028
0.338218
0.318132
0.293103
0.262786
0.231321
0.209704
0.201784
0.200197
0.20001
0.661578
0.650412
0.636669
0.621746
0.60649
0.591364
0.576615
0.562395
0.548811
0.535925
0.523766
0.512327
0.501579
0.491482
0.481997
0.473057
0.464586
0.456511
0.448763
0.441275
0.433983
0.426821
0.419722
0.412611
0.405402
0.397985
0.390218
0.381898
0.37271
0.362171
0.349539
0.333759
0.313687
0.288838
0.259083
0.228876
0.208738
0.201577
0.200171
0.200009
0.643208
0.633665
0.621746
0.608549
0.594781
0.580863
0.567072
0.553605
0.540604
0.528164
0.516341
0.505159
0.494609
0.484678
0.475326
0.466484
0.458082
0.450052
0.442329
0.43485
0.427558
0.420394
0.4133
0.406211
0.399056
0.391743
0.384143
0.376057
0.367164
0.35696
0.344661
0.329172
0.3094
0.284989
0.255931
0.226881
0.207961
0.201409
0.20015
0.200008
0.625061
0.616865
0.60649
0.594781
0.582313
0.569478
0.556566
0.54379
0.531313
0.519259
0.507719
0.496745
0.486363
0.476577
0.46733
0.458557
0.450192
0.442168
0.434426
0.426909
0.419564
0.412343
0.405201
0.398095
0.390977
0.383783
0.376407
0.368669
0.360257
0.350643
0.338989
0.324132
0.305011
0.281312
0.253083
0.225131
0.207283
0.20126
0.200132
0.200007
0.607638
0.600503
0.591365
0.580863
0.569479
0.557568
0.545402
0.533193
0.521115
0.509319
0.497936
0.487072
0.476793
0.467076
0.457862
0.449084
0.440673
0.432565
0.424701
0.417029
0.409505
0.402092
0.394768
0.387519
0.380333
0.373189
0.366033
0.358739
0.351033
0.342377
0.331846
0.318127
0.30015
0.277486
0.250249
0.223416
0.206616
0.201114
0.200113
0.200006
0.591124
0.584799
0.576615
0.567072
0.556567
0.545402
0.533816
0.522
0.510124
0.498362
0.486917
0.476003
0.465675
0.455889
0.446572
0.437644
0.429028
0.420655
0.412465
0.404407
0.396448
0.38857
0.380776
0.373083
0.365533
0.358188
0.351112
0.344317
0.337642
0.330575
0.322031
0.310326
0.294262
0.273074
0.247069
0.221498
0.205874
0.200955
0.200094
0.200004
0.575556
0.569842
0.562395
0.553606
0.54379
0.533193
0.522
0.510356
0.498391
0.486287
0.474382
0.46309
0.452443
0.442344
0.432674
0.423319
0.414184
0.405187
0.396262
0.387364
0.37846
0.369537
0.36061
0.35175
0.343103
0.334918
0.327528
0.321271
0.316283
0.312138
0.307429
0.299479
0.286524
0.267487
0.243107
0.219127
0.204989
0.200775
0.200073
0.200003
0.560935
0.555689
0.548811
0.540604
0.531313
0.521115
0.510124
0.498391
0.485924
0.472793
0.459385
0.447065
0.435605
0.424713
0.414159
0.403769
0.393412
0.382984
0.372398
0.361571
0.35044
0.338995
0.327334
0.315733
0.304693
0.294856
0.287012
0.282015
0.280451
0.282093
0.285037
0.284027
0.276007
0.260124
0.237956
0.216122
0.203944
0.200579
0.200052
0.200002
0.547256
0.542368
0.535926
0.528164
0.519259
0.509319
0.498362
0.486287
0.472793
0.45706
0.437716
0.422897
0.409393
0.396331
0.383258
0.369856
0.35585
0.341021
0.325274
0.308781
0.29214
0.276267
0.26187
0.249607
0.239908
0.232941
0.228793
0.227766
0.230734
0.23925
0.25366
0.264068
0.262961
0.250973
0.231522
0.21253
0.202819
0.200389
0.200033
0.200001
0.53449
0.529875
0.523766
0.516342
0.507719
0.497936
0.486917
0.474382
0.459385
0.437716
0.219601
0.213499
0.213785
0.213151
0.211989
0.210547
0.20898
0.207405
0.205916
0.204587
0.203469
0.202579
0.201905
0.201421
0.201092
0.200891
0.200805
0.200854
0.201156
0.202189
0.24712
0.253448
0.251978
0.241458
0.224375
0.208763
0.201783
0.20023
0.200019
0.200001
0.52259
0.518182
0.512328
0.505159
0.496745
0.487072
0.476003
0.46309
0.447065
0.422897
0.213499
0.200566
0.200335
0.200329
0.200301
0.200259
0.200212
0.200167
0.200128
0.200095
0.200069
0.20005
0.200036
0.200027
0.20002
0.200017
0.200016
0.200017
0.200025
0.200047
0.239712
0.244088
0.241831
0.232011
0.217244
0.20541
0.200992
0.200121
0.200009
0.2
0.511493
0.50724
0.50158
0.494609
0.486363
0.476793
0.465675
0.452443
0.435605
0.409393
0.213785
0.200335
0.200011
0.200006
0.200005
0.200005
0.200004
0.200003
0.200002
0.200002
0.200001
0.200001
0.200001
0.2
0.2
0.2
0.2
0.2
0.2
0.200001
0.231946
0.235028
0.232134
0.222981
0.21088
0.202915
0.200487
0.200056
0.200004
0.2
0.501128
0.49699
0.491482
0.484678
0.476577
0.467076
0.455889
0.442345
0.424713
0.396331
0.213151
0.200329
0.200006
0.2
0.2
0.2
0.2
0.2
0.2
0.2
0.2
0.2
0.2
0.2
0.2
0.2
0.2
0.2
0.2
0.2
0.224262
0.226284
0.223003
0.214881
0.205956
0.201374
0.200214
0.200024
0.200002
0.2
0.491427
0.487379
0.481997
0.475326
0.46733
0.457862
0.446572
0.432674
0.414159
0.383258
0.211989
0.200301
0.200005
0.2
0.2
0.2
0.2
0.2
0.2
0.2
0.2
0.2
0.2
0.2
0.2
0.2
0.2
0.2
0.2
0.2
0.217065
0.218162
0.214847
0.208374
0.202794
0.200576
0.200085
0.200009
0.200001
0.2
0.482329
0.478345
0.473057
0.466484
0.458557
0.449084
0.437644
0.423319
0.40377
0.369856
0.210547
0.200259
0.200005
0.2
0.2
0.2
0.2
0.2
0.2
0.2
0.2
0.2
0.2
0.2
0.2
0.2
0.2
0.2
0.2
0.2
0.210803
0.21116
0.2083
0.203984
0.20114
0.200219
0.200031
0.200003
0.2
0.2
0.47375
0.469806
0.464586
0.458082
0.450192
0.440673
0.429028
0.414184
0.393412
0.35585
0.20898
0.200212
0.200004
0.2
0.2
0.2
0.2
0.2
0.2
0.2
0.2
0.2
0.2
0.2
0.2
0.2
0.2
0.2
0.2
0.2
0.205964
0.205878
0.203902
0.201612
0.200417
0.200077
0.200011
0.200001
0.2
0.2
0.465608
0.461685
0.456511
0.450052
0.442168
0.432565
0.420655
0.405187
0.382984
0.341021
0.207405
0.200167
0.200003
0.2
0.2
0.2
0.2
0.2
0.2
0.2
0.2
0.2
0.2
0.2
0.2
0.2
0.2
0.2
0.2
0.2
0.202822
0.202612
0.201552
0.200574
0.20014
0.200025
0.200004
0.2
0.2
0.2
0.457828
0.453908
0.448763
0.442329
0.434426
0.424702
0.412465
0.396262
0.372398
0.325274
0.205916
0.200128
0.200002
0.2
0.2
0.2
0.2
0.2
0.2
0.2
0.2
0.2
0.2
0.2
0.2
0.2
0.2
0.2
0.2
0.2
0.201157
0.200998
0.200542
0.200187
0.200044
0.200008
0.200001
0.2
0.2
0.2
0.450335
0.446405
0.441275
0.434851
0.426909
0.417029
0.404407
0.387364
0.361571
0.308781
0.204587
0.200095
0.200002
0.2
0.2
0.2
0.2
0.2
0.2
0.2
0.2
0.2
0.2
0.2
0.2
0.2
0.2
0.2
0.2
0.2
0.200423
0.20034
0.200172
0.200057
0.200013
0.200002
0.2
0.2
0.2
0.2
0.44306
0.439108
0.433983
0.427558
0.419564
0.409505
0.396448
0.37846
0.35044
0.29214
0.203469
0.200069
0.200001
0.2
0.2
0.2
0.2
0.2
0.2
0.2
0.2
0.2
0.2
0.2
0.2
0.2
0.2
0.2
0.2
0.2
0.200142
0.200107
0.200051
0.200017
0.200004
0.200001
0.2
0.2
0.2
0.2
0.435929
0.431945
0.426821
0.420395
0.412343
0.402092
0.38857
0.369537
0.338995
0.276267
0.202579
0.20005
0.200001
0.2
0.2
0.2
0.2
0.2
0.2
0.2
0.2
0.2
0.2
0.2
0.2
0.2
0.2
0.2
0.2
0.2
0.200045
0.200032
0.200015
0.200005
0.200001
0.2
0.2
0.2
0.2
0.2
0.428866
0.424844
0.419722
0.4133
0.405201
0.394768
0.380776
0.360611
0.327334
0.26187
0.201905
0.200036
0.200001
0.2
0.2
0.2
0.2
0.2
0.2
0.2
0.2
0.2
0.2
0.2
0.2
0.2
0.2
0.2
0.2
0.2
0.200014
0.200009
0.200004
0.200001
0.2
0.2
0.2
0.2
0.2
0.2
0.421788
0.417725
0.412612
0.406211
0.398095
0.387519
0.373083
0.35175
0.315733
0.249607
0.201421
0.200027
0.2
0.2
0.2
0.2
0.2
0.2
0.2
0.2
0.2
0.2
0.2
0.2
0.2
0.2
0.2
0.2
0.2
0.2
0.200004
0.200003
0.200001
0.2
0.2
0.2
0.2
0.2
0.2
0.2
0.414595
0.410491
0.405402
0.399056
0.390977
0.380333
0.365533
0.343104
0.304693
0.239908
0.201092
0.20002
0.2
0.2
0.2
0.2
0.2
0.2
0.2
0.2
0.2
0.2
0.2
0.2
0.2
0.2
0.2
0.2
0.2
0.2
0.200001
0.200001
0.2
0.2
0.2
0.2
0.2
0.2
0.2
0.2
0.407168
0.403027
0.397985
0.391743
0.383783
0.373189
0.358188
0.334918
0.294856
0.232941
0.200891
0.200017
0.2
0.2
0.2
0.2
0.2
0.2
0.2
0.2
0.2
0.2
0.2
0.2
0.2
0.2
0.2
0.2
0.2
0.2
0.2
0.2
0.2
0.2
0.2
0.2
0.2
0.2
0.2
0.2
0.399353
0.395181
0.390218
0.384143
0.376407
0.366033
0.351112
0.327528
0.287012
0.228793
0.200805
0.200016
0.2
0.2
0.2
0.2
0.2
0.2
0.2
0.2
0.2
0.2
0.2
0.2
0.2
0.2
0.2
0.2
0.2
0.2
0.2
0.2
0.2
0.2
0.2
0.2
0.2
0.2
0.2
0.2
0.390942
0.38675
0.381898
0.376057
0.368669
0.358739
0.344317
0.321272
0.282015
0.227766
0.200854
0.200017
0.2
0.2
0.2
0.2
0.2
0.2
0.2
0.2
0.2
0.2
0.2
0.2
0.2
0.2
0.2
0.2
0.2
0.2
0.2
0.2
0.2
0.2
0.2
0.2
0.2
0.2
0.2
0.2
0.381644
0.377429
0.37271
0.367165
0.360257
0.351033
0.337642
0.316283
0.280451
0.230734
0.201156
0.200025
0.2
0.2
0.2
0.2
0.2
0.2
0.2
0.2
0.2
0.2
0.2
0.2
0.2
0.2
0.2
0.2
0.2
0.2
0.2
0.2
0.2
0.2
0.2
0.2
0.2
0.2
0.2
0.2
0.371017
0.366758
0.362171
0.35696
0.350643
0.342378
0.330575
0.312138
0.282093
0.23925
0.202189
0.200047
0.200001
0.2
0.2
0.2
0.2
0.2
0.2
0.2
0.2
0.2
0.2
0.2
0.2
0.2
0.2
0.2
0.2
0.2
0.2
0.2
0.2
0.2
0.2
0.2
0.2
0.2
0.2
0.2
0.358387
0.354028
0.349539
0.344661
0.338989
0.331846
0.322031
0.307429
0.285037
0.25366
0.24712
0.239712
0.231946
0.224262
0.217065
0.210803
0.205964
0.202822
0.201157
0.200423
0.200142
0.200045
0.200014
0.200004
0.200001
0.2
0.2
0.2
0.2
0.2
0.2
0.2
0.2
0.2
0.2
0.2
0.2
0.2
0.2
0.2
0.342764
0.338218
0.333759
0.329172
0.324132
0.318127
0.310326
0.299479
0.284027
0.264068
0.253448
0.244088
0.235028
0.226284
0.218162
0.21116
0.205878
0.202612
0.200998
0.20034
0.200107
0.200032
0.200009
0.200003
0.200001
0.2
0.2
0.2
0.2
0.2
0.2
0.2
0.2
0.2
0.2
0.2
0.2
0.2
0.2
0.2
0.322924
0.318132
0.313687
0.3094
0.305011
0.30015
0.294262
0.286524
0.276007
0.262961
0.251978
0.241831
0.232134
0.223003
0.214847
0.2083
0.203902
0.201552
0.200542
0.200172
0.200051
0.200015
0.200004
0.200001
0.2
0.2
0.2
0.2
0.2
0.2
0.2
0.2
0.2
0.2
0.2
0.2
0.2
0.2
0.2
0.2
0.297996
0.293103
0.288838
0.284989
0.281312
0.277486
0.273074
0.267487
0.260124
0.250973
0.241459
0.232011
0.222981
0.214881
0.208374
0.203984
0.201612
0.200574
0.200187
0.200057
0.200017
0.200005
0.200001
0.2
0.2
0.2
0.2
0.2
0.2
0.2
0.2
0.2
0.2
0.2
0.2
0.2
0.2
0.2
0.2
0.2
0.267295
0.262786
0.259083
0.255931
0.253083
0.250249
0.247069
0.243107
0.237956
0.231522
0.224375
0.217244
0.21088
0.205957
0.202794
0.20114
0.200417
0.20014
0.200044
0.200013
0.200004
0.200001
0.2
0.2
0.2
0.2
0.2
0.2
0.2
0.2
0.2
0.2
0.2
0.2
0.2
0.2
0.2
0.2
0.2
0.2
0.234433
0.231321
0.228877
0.226881
0.225131
0.223416
0.221498
0.219127
0.216123
0.21253
0.208763
0.20541
0.202915
0.201374
0.200576
0.200219
0.200077
0.200025
0.200008
0.200002
0.200001
0.2
0.2
0.2
0.2
0.2
0.2
0.2
0.2
0.2
0.2
0.2
0.2
0.2
0.2
0.2
0.2
0.2
0.2
0.2
0.210956
0.209704
0.208738
0.207961
0.207283
0.206616
0.205874
0.204989
0.203944
0.202819
0.201783
0.200992
0.200487
0.200214
0.200085
0.200031
0.200011
0.200004
0.200001
0.2
0.2
0.2
0.2
0.2
0.2
0.2
0.2
0.2
0.2
0.2
0.2
0.2
0.2
0.2
0.2
0.2
0.2
0.2
0.2
0.2
0.20205
0.201784
0.201577
0.201409
0.201261
0.201114
0.200955
0.200775
0.200579
0.200389
0.20023
0.200121
0.200056
0.200024
0.200009
0.200003
0.200001
0.2
0.2
0.2
0.2
0.2
0.2
0.2
0.2
0.2
0.2
0.2
0.2
0.2
0.2
0.2
0.2
0.2
0.2
0.2
0.2
0.2
0.2
0.2
0.200229
0.200197
0.200171
0.20015
0.200132
0.200113
0.200094
0.200073
0.200052
0.200033
0.200019
0.200009
0.200004
0.200002
0.200001
0.2
0.2
0.2
0.2
0.2
0.2
0.2
0.2
0.2
0.2
0.2
0.2
0.2
0.2
0.2
0.2
0.2
0.2
0.2
0.2
0.2
0.2
0.2
0.2
0.2
0.200012
0.20001
0.200009
0.200008
0.200007
0.200006
0.200004
0.200003
0.200002
0.200001
0.200001
0.2
0.2
0.2
0.2
0.2
0.2
0.2
0.2
0.2
0.2
0.2
0.2
0.2
0.2
0.2
0.2
0.2
0.2
0.2
0.2
0.2
0.2
0.2
0.2
0.2
0.2
0.2
0.2
0.2
0.755597
0.737569
0.714966
0.691243
0.668245
0.646764
0.627021
0.608995
0.592555
0.577523
0.563754
0.551126
0.539526
0.528841
0.518949
0.509738
0.501131
0.493042
0.485396
0.478121
0.471151
0.464425
0.457883
0.451465
0.445109
0.438744
0.432294
0.425665
0.418749
0.411416
0.403497
0.394718
0.384366
0.370264
0.348494
0.31266
0.260259
0.21666
0.202166
0.200123
0.737574
0.720979
0.700632
0.679204
0.658173
0.638245
0.61969
0.602556
0.58677
0.57222
0.558815
0.546469
0.53509
0.524578
0.514818
0.505716
0.497198
0.489184
0.481601
0.474382
0.467466
0.460794
0.454313
0.447966
0.441695
0.435436
0.429114
0.42264
0.415904
0.408775
0.401083
0.392543
0.382395
0.368325
0.346304
0.309818
0.257223
0.215275
0.20194
0.200108
0.714966
0.700632
0.683061
0.664287
0.645526
0.627424
0.610288
0.594227
0.579233
0.565277
0.552329
0.540343
0.529251
0.518966
0.509385
0.50044
0.492057
0.484162
0.476688
0.469574
0.462765
0.456207
0.449854
0.443655
0.43756
0.431508
0.42543
0.419238
0.412819
0.406035
0.398708
0.390536
0.380696
0.366738
0.34456
0.307531
0.254767
0.214167
0.201757
0.200096
0.691242
0.679205
0.664288
0.648052
0.631492
0.615198
0.599487
0.584506
0.570322
0.556987
0.544522
0.53292
0.522137
0.512093
0.50272
0.493958
0.485735
0.477985
0.470649
0.46367
0.457001
0.450599
0.444422
0.438432
0.432585
0.426832
0.421107
0.415324
0.409368
0.403087
0.396281
0.388617
0.379191
0.365431
0.343177
0.305674
0.252723
0.213241
0.201603
0.200086
0.668245
0.658174
0.645527
0.631492
0.616882
0.602213
0.587787
0.573784
0.560345
0.54758
0.535559
0.524312
0.51381
0.503995
0.49483
0.48625
0.478191
0.470591
0.463398
0.456563
0.450049
0.44382
0.437847
0.432104
0.426561
0.421181
0.415911
0.410673
0.405345
0.399754
0.393662
0.386672
0.377772
0.364296
0.34203
0.304067
0.250872
0.212391
0.20146
0.200077
0.646764
0.638245
0.627424
0.615198
0.602213
0.588901
0.575543
0.562361
0.549534
0.537217
0.525531
0.514543
0.504244
0.494626
0.485637
0.477214
0.469295
0.461826
0.454758
0.448052
0.441679
0.435616
0.429848
0.424362
0.419152
0.414202
0.409483
0.40493
0.400423
0.395759
0.390629
0.384525
0.376271
0.363174
0.340926
0.302437
0.248913
0.211492
0.20131
0.200067
0.627021
0.61969
0.610288
0.599487
0.587786
0.575543
0.563031
0.55047
0.538054
0.525973
0.514407
0.503495
0.493302
0.483799
0.474922
0.4666
0.45877
0.451381
0.444389
0.437765
0.431489
0.425549
0.419946
0.414691
0.409804
0.405304
0.401202
0.397469
0.394002
0.390571
0.386756
0.381834
0.374379
0.36179
0.33956
0.300371
0.246443
0.210408
0.201138
0.200056
0.608996
0.602556
0.594227
0.584506
0.573784
0.562361
0.55047
0.538296
0.526007
0.513791
0.501925
0.490835
0.480577
0.471063
0.46219
0.453868
0.446026
0.438614
0.431595
0.424947
0.418658
0.41273
0.407177
0.402033
0.397347
0.393187
0.38963
0.386741
0.384512
0.382743
0.380873
0.377674
0.371445
0.359642
0.337432
0.297247
0.242952
0.209018
0.200934
0.200044
0.592555
0.58677
0.579232
0.570322
0.560345
0.549534
0.538054
0.526007
0.513435
0.500384
0.487314
0.475597
0.465006
0.455268
0.446191
0.437645
0.429547
0.421845
0.414508
0.407519
0.400867
0.394538
0.388523
0.382823
0.377485
0.372717
0.368868
0.366361
0.365612
0.366707
0.368851
0.369426
0.366012
0.355797
0.333725
0.292147
0.237892
0.207276
0.200706
0.200031
0.577524
0.57222
0.565276
0.556986
0.54758
0.537217
0.525973
0.513791
0.500384
0.485122
0.467164
0.453989
0.442521
0.431979
0.422012
0.412421
0.403087
0.393944
0.384943
0.375987
0.366858
0.3573
0.347384
0.337239
0.327191
0.317932
0.310646
0.307062
0.309306
0.319126
0.335596
0.350326
0.355292
0.348871
0.327309
0.283913
0.230965
0.205304
0.200478
0.20002
0.563754
0.558815
0.552329
0.544522
0.535559
0.525531
0.514407
0.501925
0.487314
0.467164
0.228264
0.221226
0.222876
0.223202
0.222702
0.221691
0.22034
0.218765
0.217048
0.215258
0.213457
0.211709
0.21008
0.208634
0.207441
0.206579
0.206167
0.206446
0.208109
0.213635
0.32949
0.341289
0.34625
0.340467
0.31779
0.271779
0.222684
0.20341
0.200286
0.200011
0.551126
0.546469
0.540343
0.53292
0.524312
0.514543
0.503495
0.490835
0.475597
0.453989
0.221226
0.201195
0.200769
0.200824
0.200826
0.200787
0.200723
0.200645
0.200561
0.200477
0.200397
0.200326
0.200266
0.200217
0.200181
0.200158
0.20015
0.200164
0.200222
0.200388
0.32245
0.333362
0.337391
0.330351
0.304495
0.255879
0.214478
0.201914
0.20015
0.200006
0.539527
0.53509
0.529251
0.522137
0.51381
0.504244
0.493302
0.480577
0.465006
0.442521
0.222876
0.200769
0.200031
0.200018
0.200019
0.200018
0.200017
0.200014
0.200012
0.20001
0.200008
0.200006
0.200005
0.200004
0.200003
0.200003
0.200003
0.200003
0.200004
0.200006
0.314321
0.324823
0.327369
0.317422
0.28652
0.238015
0.207929
0.200941
0.20007
0.200003
0.528841
0.524578
0.518966
0.512093
0.503995
0.494626
0.483799
0.471063
0.455268
0.431979
0.223202
0.200824
0.200018
0.200001
0.2
0.2
0.2
0.2
0.2
0.2
0.2
0.2
0.2
0.2
0.2
0.2
0.2
0.2
0.2
0.2
0.304563
0.31452
0.314722
0.300143
0.263945
0.221776
0.203744
0.200412
0.200029
0.200001
0.518949
0.514818
0.509385
0.50272
0.49483
0.485637
0.474922
0.46219
0.446191
0.422012
0.222702
0.200826
0.200019
0.2
0.2
0.2
0.2
0.2
0.2
0.2
0.2
0.2
0.2
0.2
0.2
0.2
0.2
0.2
0.2
0.2
0.292194
0.301053
0.29776
0.277461
0.239878
0.210376
0.201556
0.200163
0.200011
0.2
0.509738
0.505716
0.50044
0.493958
0.48625
0.477214
0.4666
0.453868
0.437645
0.412421
0.221691
0.200787
0.200018
0.2
0.2
0.2
0.2
0.2
0.2
0.2
0.2
0.2
0.2
0.2
0.2
0.2
0.2
0.2
0.2
0.2
0.276081
0.282973
0.275375
0.251085
0.220136
0.204205
0.200584
0.200059
0.200004
0.2
0.501131
0.497198
0.492057
0.485735
0.478191
0.469295
0.45877
0.446026
0.429547
0.403087
0.22034
0.200723
0.200017
0.2
0.2
0.2
0.2
0.2
0.2
0.2
0.2
0.2
0.2
0.2
0.2
0.2
0.2
0.2
0.2
0.2
0.256111
0.260171
0.24933
0.227075
0.208261
0.20151
0.200202
0.20002
0.200001
0.2
0.493043
0.489184
0.484162
0.477985
0.470591
0.461826
0.451381
0.438614
0.421845
0.393944
0.218765
0.200645
0.200014
0.2
0.2
0.2
0.2
0.2
0.2
0.2
0.2
0.2
0.2
0.2
0.2
0.2
0.2
0.2
0.2
0.2
0.234955
0.236136
0.225777
0.211345
0.202888
0.200498
0.200066
0.200007
0.2
0.2
0.485396
0.481601
0.476688
0.470649
0.463398
0.454758
0.444389
0.431595
0.414508
0.384943
0.217048
0.200561
0.200012
0.2
0.2
0.2
0.2
0.2
0.2
0.2
0.2
0.2
0.2
0.2
0.2
0.2
0.2
0.2
0.2
0.2
0.217637
0.217177
0.210577
0.203921
0.200912
0.200155
0.20002
0.200002
0.2
0.2
0.478121
0.474382
0.469574
0.46367
0.456563
0.448052
0.437765
0.424947
0.40752
0.375987
0.215258
0.200477
0.20001
0.2
0.2
0.2
0.2
0.2
0.2
0.2
0.2
0.2
0.2
0.2
0.2
0.2
0.2
0.2
0.2
0.2
0.207232
0.206537
0.203573
0.201201
0.200271
0.200046
0.200006
0.200001
0.2
0.2
0.471151
0.467466
0.462765
0.457001
0.450049
0.441679
0.431489
0.418658
0.400867
0.366858
0.213457
0.200397
0.200008
0.2
0.2
0.2
0.2
0.2
0.2
0.2
0.2
0.2
0.2
0.2
0.2
0.2
0.2
0.2
0.2
0.2
0.202539
0.202128
0.201074
0.200345
0.200078
0.200013
0.200002
0.2
0.2
0.2
0.464425
0.460794
0.456207
0.450599
0.44382
0.435616
0.425549
0.41273
0.394538
0.3573
0.211709
0.200326
0.200006
0.2
0.2
0.2
0.2
0.2
0.2
0.2
0.2
0.2
0.2
0.2
0.2
0.2
0.2
0.2
0.2
0.2
0.200812
0.200635
0.200304
0.200096
0.200022
0.200004
0.200001
0.2
0.2
0.2
0.457883
0.454313
0.449854
0.444422
0.437847
0.429848
0.419946
0.407177
0.388523
0.347384
0.21008
0.200266
0.200005
0.2
0.2
0.2
0.2
0.2
0.2
0.2
0.2
0.2
0.2
0.2
0.2
0.2
0.2
0.2
0.2
0.2
0.200246
0.200181
0.200083
0.200026
0.200006
0.200001
0.2
0.2
0.2
0.2
0.451465
0.447966
0.443655
0.438432
0.432104
0.424362
0.414691
0.402034
0.382823
0.337239
0.208634
0.200217
0.200004
0.2
0.2
0.2
0.2
0.2
0.2
0.2
0.2
0.2
0.2
0.2
0.2
0.2
0.2
0.2
0.2
0.2
0.200072
0.20005
0.200023
0.200007
0.200002
0.2
0.2
0.2
0.2
0.2
0.445109
0.441695
0.43756
0.432585
0.426561
0.419152
0.409804
0.397347
0.377485
0.327191
0.207441
0.200181
0.200003
0.2
0.2
0.2
0.2
0.2
0.2
0.2
0.2
0.2
0.2
0.2
0.2
0.2
0.2
0.2
0.2
0.2
0.20002
0.200014
0.200006
0.200002
0.2
0.2
0.2
0.2
0.2
0.2
0.438744
0.435436
0.431508
0.426832
0.421181
0.414202
0.405304
0.393187
0.372717
0.317932
0.206579
0.200158
0.200003
0.2
0.2
0.2
0.2
0.2
0.2
0.2
0.2
0.2
0.2
0.2
0.2
0.2
0.2
0.2
0.2
0.2
0.200006
0.200004
0.200002
0.200001
0.2
0.2
0.2
0.2
0.2
0.2
0.432294
0.429114
0.425431
0.421107
0.415912
0.409483
0.401202
0.38963
0.368868
0.310646
0.206167
0.20015
0.200003
0.2
0.2
0.2
0.2
0.2
0.2
0.2
0.2
0.2
0.2
0.2
0.2
0.2
0.2
0.2
0.2
0.2
0.200001
0.200001
0.2
0.2
0.2
0.2
0.2
0.2
0.2
0.2
0.425665
0.42264
0.419238
0.415324
0.410673
0.40493
0.397469
0.386741
0.366361
0.307062
0.206446
0.200164
0.200003
0.2
0.2
0.2
0.2
0.2
0.2
0.2
0.2
0.2
0.2
0.2
0.2
0.2
0.2
0.2
0.2
0.2
0.2
0.2
0.2
0.2
0.2
0.2
0.2
0.2
0.2
0.2
0.41875
0.415904
0.412819
0.409368
0.405345
0.400423
0.394003
0.384512
0.365612
0.309306
0.208109
0.200222
0.200004
0.2
0.2
0.2
0.2
0.2
0.2
0.2
0.2
0.2
0.2
0.2
0.2
0.2
0.2
0.2
0.2
0.2
0.2
0.2
0.2
0.2
0.2
0.2
0.2
0.2
0.2
0.2
0.411416
0.408775
0.406035
0.403087
0.399754
0.395759
0.390571
0.382743
0.366707
0.319126
0.213635
0.200388
0.200006
0.2
0.2
0.2
0.2
0.2
0.2
0.2
0.2
0.2
0.2
0.2
0.2
0.2
0.2
0.2
0.2
0.2
0.2
0.2
0.2
0.2
0.2
0.2
0.2
0.2
0.2
0.2
0.403497
0.401083
0.398708
0.396281
0.393662
0.390629
0.386756
0.380873
0.368852
0.335596
0.32949
0.32245
0.314321
0.304563
0.292194
0.276082
0.256111
0.234955
0.217637
0.207232
0.202539
0.200812
0.200246
0.200072
0.20002
0.200006
0.200001
0.2
0.2
0.2
0.2
0.2
0.2
0.2
0.2
0.2
0.2
0.2
0.2
0.2
0.394718
0.392543
0.390536
0.388617
0.386672
0.384525
0.381834
0.377674
0.369427
0.350326
0.341289
0.333362
0.324823
0.31452
0.301053
0.282973
0.260172
0.236136
0.217177
0.206537
0.202128
0.200635
0.200181
0.20005
0.200014
0.200004
0.200001
0.2
0.2
0.2
0.2
0.2
0.2
0.2
0.2
0.2
0.2
0.2
0.2
0.2
0.384366
0.382395
0.380696
0.379191
0.377773
0.376271
0.374379
0.371445
0.366012
0.355292
0.34625
0.337391
0.327369
0.314722
0.29776
0.275375
0.24933
0.225777
0.210577
0.203573
0.201074
0.200304
0.200083
0.200023
0.200006
0.200002
0.2
0.2
0.2
0.2
0.2
0.2
0.2
0.2
0.2
0.2
0.2
0.2
0.2
0.2
0.370264
0.368325
0.366739
0.365431
0.364297
0.363174
0.36179
0.359642
0.355798
0.348872
0.340467
0.330352
0.317422
0.300143
0.277461
0.251085
0.227076
0.211345
0.203921
0.201201
0.200345
0.200096
0.200026
0.200007
0.200002
0.200001
0.2
0.2
0.2
0.2
0.2
0.2
0.2
0.2
0.2
0.2
0.2
0.2
0.2
0.2
0.348494
0.346304
0.34456
0.343177
0.34203
0.340926
0.33956
0.337432
0.333725
0.327309
0.317791
0.304495
0.286521
0.263945
0.239878
0.220136
0.208262
0.202888
0.200912
0.200271
0.200078
0.200022
0.200006
0.200002
0.2
0.2
0.2
0.2
0.2
0.2
0.2
0.2
0.2
0.2
0.2
0.2
0.2
0.2
0.2
0.2
0.31266
0.309818
0.307531
0.305674
0.304067
0.302437
0.300371
0.297247
0.292147
0.283913
0.27178
0.255879
0.238015
0.221776
0.210376
0.204205
0.20151
0.200498
0.200155
0.200046
0.200013
0.200004
0.200001
0.2
0.2
0.2
0.2
0.2
0.2
0.2
0.2
0.2
0.2
0.2
0.2
0.2
0.2
0.2
0.2
0.2
0.260259
0.257224
0.254767
0.252723
0.250872
0.248913
0.246443
0.242952
0.237892
0.230965
0.222684
0.214478
0.207929
0.203744
0.201556
0.200584
0.200202
0.200066
0.20002
0.200006
0.200002
0.200001
0.2
0.2
0.2
0.2
0.2
0.2
0.2
0.2
0.2
0.2
0.2
0.2
0.2
0.2
0.2
0.2
0.2
0.2
0.21666
0.215275
0.214167
0.213241
0.212391
0.211492
0.210409
0.209018
0.207276
0.205304
0.20341
0.201914
0.200941
0.200412
0.200163
0.200059
0.20002
0.200007
0.200002
0.200001
0.2
0.2
0.2
0.2
0.2
0.2
0.2
0.2
0.2
0.2
0.2
0.2
0.2
0.2
0.2
0.2
0.2
0.2
0.2
0.2
0.202166
0.20194
0.201757
0.201603
0.20146
0.20131
0.201138
0.200934
0.200706
0.200478
0.200286
0.20015
0.20007
0.200029
0.200011
0.200004
0.200001
0.2
0.2
0.2
0.2
0.2
0.2
0.2
0.2
0.2
0.2
0.2
0.2
0.2
0.2
0.2
0.2
0.2
0.2
0.2
0.2
0.2
0.2
0.2
0.200123
0.200108
0.200096
0.200086
0.200077
0.200067
0.200056
0.200044
0.200031
0.20002
0.200011
0.200006
0.200003
0.200001
0.2
0.2
0.2
0.2
0.2
0.2
0.2
0.2
0.2
0.2
0.2
0.2
0.2
0.2
0.2
0.2
0.2
0.2
0.2
0.2
0.2
0.2
0.2
0.2
0.2
0.2
0.790705
0.776435
0.75278
0.725447
0.698499
0.67355
0.650994
0.630767
0.61265
0.596377
0.581682
0.568343
0.556187
0.545068
0.534852
0.525415
0.516643
0.508449
0.50075
0.493471
0.486546
0.479912
0.47351
0.467282
0.461168
0.455106
0.449024
0.442836
0.436435
0.429673
0.422332
0.414032
0.404071
0.39111
0.372627
0.343497
0.296034
0.237747
0.20634
0.200405
0.776446
0.759421
0.736374
0.711346
0.686789
0.663805
0.642754
0.623652
0.606367
0.590703
0.576453
0.563451
0.55156
0.540654
0.530613
0.521318
0.51267
0.504585
0.496986
0.489803
0.482971
0.476433
0.470134
0.464021
0.458037
0.452123
0.446209
0.440212
0.434022
0.427487
0.420376
0.412298
0.402523
0.389679
0.371169
0.341727
0.293682
0.235862
0.205866
0.200368
0.752781
0.736373
0.715846
0.693906
0.672179
0.651509
0.632256
0.614515
0.598242
0.58332
0.569624
0.557053
0.545507
0.534886
0.525082
0.515987
0.50752
0.499601
0.492158
0.485127
0.47845
0.472073
0.465948
0.460028
0.454261
0.448591
0.442952
0.43726
0.431398
0.425206
0.418437
0.410678
0.401173
0.388523
0.370063
0.340398
0.291859
0.234375
0.205487
0.200339
0.725444
0.711346
0.693906
0.675093
0.656142
0.637761
0.620315
0.603958
0.588718
0.574559
0.561447
0.54934
0.538175
0.527872
0.518334
0.509478
0.501228
0.493511
0.486262
0.479422
0.472941
0.466772
0.460875
0.455208
0.449729
0.444388
0.439121
0.433845
0.428436
0.422716
0.416417
0.409093
0.399954
0.387582
0.369245
0.339423
0.290426
0.233153
0.205167
0.200313
0.698497
0.68679
0.672181
0.656143
0.639658
0.623337
0.607536
0.592441
0.578137
0.564679
0.552112
0.540446
0.529652
0.519662
0.510399
0.501794
0.493775
0.486274
0.479234
0.472603
0.466337
0.4604
0.454759
0.449384
0.444242
0.439295
0.434489
0.429741
0.424921
0.419831
0.414161
0.407418
0.398766
0.386766
0.368618
0.338668
0.289187
0.232027
0.204865
0.200288
0.67355
0.663806
0.651511
0.637762
0.623337
0.608755
0.594341
0.580292
0.566755
0.553864
0.541731
0.530427
0.519944
0.510228
0.501222
0.492853
0.485053
0.477759
0.470918
0.464486
0.458427
0.452714
0.447326
0.442246
0.437459
0.432946
0.42867
0.424562
0.420491
0.416232
0.411414
0.405453
0.397451
0.385938
0.368037
0.337942
0.287867
0.23078
0.20453
0.200261
0.650994
0.642755
0.632258
0.620315
0.607536
0.594342
0.58101
0.567751
0.554755
0.542209
0.530308
0.519209
0.508926
0.499422
0.490622
0.482446
0.474822
0.467691
0.461003
0.45472
0.448815
0.443271
0.438078
0.433241
0.428769
0.424673
0.420957
0.417586
0.414453
0.411311
0.407696
0.40284
0.395741
0.38488
0.367282
0.336965
0.286082
0.229142
0.204113
0.200228
0.630768
0.623654
0.614516
0.603959
0.592442
0.580292
0.567751
0.555013
0.542256
0.529694
0.517639
0.506477
0.496245
0.486844
0.478157
0.470084
0.462542
0.45547
0.448821
0.442561
0.436669
0.431137
0.425973
0.421203
0.416873
0.41305
0.409816
0.407232
0.405279
0.403731
0.401988
0.398865
0.393154
0.383228
0.366018
0.335333
0.283309
0.226813
0.203571
0.200189
0.612651
0.606368
0.598243
0.588718
0.578137
0.566755
0.554755
0.542256
0.529335
0.516095
0.502976
0.491333
0.480918
0.471438
0.462684
0.454515
0.446831
0.439562
0.432659
0.426087
0.419827
0.413877
0.408261
0.403035
0.398307
0.394246
0.391102
0.389174
0.388737
0.389787
0.391587
0.391855
0.388702
0.38035
0.363732
0.332472
0.27886
0.223525
0.202898
0.200145
0.596377
0.590703
0.58332
0.574559
0.56468
0.553864
0.542209
0.529694
0.516095
0.500801
0.48305
0.470208
0.459177
0.44917
0.43983
0.43095
0.422393
0.414061
0.405875
0.397774
0.389712
0.381668
0.37365
0.365767
0.358243
0.351471
0.346137
0.343352
0.34471
0.351831
0.36449
0.376072
0.379944
0.375105
0.359676
0.327594
0.271919
0.219202
0.202143
0.2001
0.581682
0.576453
0.569625
0.561448
0.552113
0.541732
0.530308
0.51764
0.502976
0.48305
0.231805
0.22465
0.226992
0.227838
0.227745
0.227064
0.225986
0.224632
0.223091
0.221433
0.219722
0.218018
0.216384
0.214891
0.213626
0.212711
0.212353
0.212982
0.215759
0.224742
0.358715
0.368481
0.372659
0.368976
0.353844
0.320002
0.261874
0.214183
0.201413
0.200061
0.568343
0.563452
0.557053
0.54934
0.540447
0.530427
0.519209
0.506477
0.491333
0.470208
0.22465
0.201566
0.201041
0.201146
0.201183
0.201166
0.201111
0.201032
0.200939
0.20084
0.200741
0.200648
0.200563
0.200492
0.200436
0.200399
0.200391
0.200427
0.200559
0.200921
0.352385
0.361973
0.365863
0.362151
0.346105
0.308931
0.248795
0.209248
0.200821
0.200033
0.556187
0.551561
0.545508
0.538175
0.529653
0.519945
0.508926
0.496245
0.480918
0.459177
0.226992
0.201041
0.200046
0.200028
0.20003
0.20003
0.200029
0.200027
0.200024
0.200021
0.200018
0.200015
0.200013
0.200011
0.20001
0.200009
0.200008
0.200009
0.200012
0.200017
0.345568
0.355405
0.358845
0.354281
0.335872
0.293407
0.234013
0.205238
0.200419
0.200016
0.545068
0.540654
0.534886
0.527873
0.519663
0.510228
0.499422
0.486844
0.471438
0.44917
0.227838
0.201146
0.200028
0.200001
0.200001
0.200001
0.200001
0.200001
0.2
0.2
0.2
0.2
0.2
0.2
0.2
0.2
0.2
0.2
0.2
0.2
0.338145
0.348286
0.350997
0.344627
0.32194
0.272806
0.220212
0.202573
0.20019
0.200007
0.534853
0.530613
0.525082
0.518335
0.510399
0.501222
0.490622
0.478157
0.462684
0.43983
0.227745
0.201183
0.20003
0.200001
0.2
0.2
0.2
0.2
0.2
0.2
0.2
0.2
0.2
0.2
0.2
0.2
0.2
0.2
0.2
0.2
0.329784
0.34005
0.341464
0.331901
0.30253
0.248698
0.210045
0.201109
0.200077
0.200003
0.525415
0.521318
0.515987
0.509478
0.501794
0.492854
0.482446
0.470084
0.454515
0.43095
0.227064
0.201166
0.20003
0.200001
0.2
0.2
0.2
0.2
0.2
0.2
0.2
0.2
0.2
0.2
0.2
0.2
0.2
0.2
0.2
0.2
0.319722
0.329704
0.328836
0.314099
0.276393
0.226374
0.204225
0.200428
0.200029
0.200001
0.516643
0.51267
0.50752
0.501229
0.493775
0.485053
0.474822
0.462542
0.446831
0.422393
0.225986
0.201111
0.200029
0.200001
0.2
0.2
0.2
0.2
0.2
0.2
0.2
0.2
0.2
0.2
0.2
0.2
0.2
0.2
0.2
0.2
0.306537
0.315548
0.310945
0.289009
0.246394
0.211376
0.201558
0.200151
0.20001
0.2
0.508449
0.504585
0.499601
0.493512
0.486275
0.477759
0.467691
0.45547
0.439562
0.414061
0.224632
0.201032
0.200027
0.200001
0.2
0.2
0.2
0.2
0.2
0.2
0.2
0.2
0.2
0.2
0.2
0.2
0.2
0.2
0.2
0.2
0.28823
0.295256
0.285514
0.257384
0.221471
0.204088
0.200523
0.20005
0.200003
0.2
0.50075
0.496986
0.492159
0.486262
0.479234
0.470918
0.461003
0.448821
0.432659
0.405875
0.223091
0.200939
0.200024
0.2
0.2
0.2
0.2
0.2
0.2
0.2
0.2
0.2
0.2
0.2
0.2
0.2
0.2
0.2
0.2
0.2
0.263755