/*--------------------------------*- C++ -*----------------------------------*\
| =========                 |                                                 |
| \\      /  F ield         | OpenFOAM: The Open Source CFD Toolbox           |
|  \\    /   O peration     | Version:  1.6                                   |
|   \\  /    A nd           | Web:      www.OpenFOAM.org                      |
|    \\/     M anipulation  |                                                 |
\*---------------------------------------------------------------------------*/
FoamFile
{
    version     2.0;
    format      ascii;
    class       volScalarField;
    location    "1";
    object      T;
}
// * * * * * * * * * * * * * * * * * * * * * * * * * * * * * * * * * * * * * //

dimensions      [0 0 0 0 0 0 0];

internalField   nonuniform List<scalar> 
400
(
4.99314
7.7117
8.62713
9.01618
9.21668
9.33385
9.40689
9.45292
9.48026
9.49305
9.49305
9.48026
9.45292
9.40689
9.33385
9.21668
9.01618
8.62713
7.71171
4.99314
2.24713
4.93825
6.40775
7.23708
7.73338
8.04569
8.24769
8.37746
8.45533
8.49196
8.49196
8.45533
8.37746
8.24769
8.04569
7.73339
7.2371
6.40777
4.93826
2.24713
1.30424
3.38643
4.82856
5.79103
6.43407
6.86783
7.16072
7.3539
7.47165
7.52749
7.52749
7.47165
7.3539
7.16072
6.86783
6.43408
5.79105
4.82857
3.38644
1.30425
0.887674
2.47465
3.72903
4.66442
5.34404
5.83085
6.17347
6.40578
6.54987
6.61887
6.61886
6.54987
6.40577
6.17346
5.83085
5.34405
4.66443
3.72905
2.47466
0.887679
0.659476
1.89548
2.94851
3.79357
4.44684
4.93806
5.29651
5.54588
5.70319
5.77924
5.77924
5.70318
5.54587
5.2965
4.93805
4.44683
3.79357
2.94852
1.89549
0.65948
0.514233
1.49927
2.37596
3.11451
3.71168
4.17802
4.52865
4.77804
4.93777
5.01567
5.01567
4.93776
4.77803
4.52864
4.17801
3.71167
3.11451
2.37596
1.49928
0.514236
0.412417
1.21143
1.94155
2.57684
3.10734
3.53371
3.86201
4.09986
4.25417
4.33001
4.33001
4.25416
4.09984
3.862
3.5337
3.10733
2.57684
1.94155
1.21143
0.41242
0.336428
0.992471
1.60196
2.14397
2.60712
2.98748
3.28584
3.5052
3.64905
3.7202
3.7202
3.64905
3.50519
3.28582
2.98747
2.60711
2.14397
1.60196
0.992475
0.33643
0.27725
0.820076
1.32984
1.78998
2.18968
2.52325
2.78866
2.98607
3.11663
3.18155
3.18155
3.11663
2.98607
2.78865
2.52324
2.18968
1.78997
1.32984
0.82008
0.277252
0.229748
0.680749
1.10734
1.49641
1.83839
2.12719
2.35946
2.53379
2.64987
2.70781
2.70781
2.64986
2.53379
2.35946
2.12718
1.83839
1.49641
1.10735
0.680753
0.22975
0.190741
0.565831
0.922381
1.24993
1.54029
1.78765
1.98821
2.13978
2.24122
2.29203
2.29203
2.24122
2.13978
1.98821
1.78765
1.54029
1.24993
0.922385
0.565836
0.190743
0.158126
0.469457
0.76642
1.04063
1.28521
1.4949
1.66596
1.7959
1.88322
1.92706
1.92706
1.88322
1.79591
1.66596
1.49491
1.28522
1.04064
0.766425
0.469462
0.158128
0.130431
0.387454
0.63321
0.860972
1.06502
1.24079
1.38482
1.49466
1.56869
1.60593
1.60593
1.5687
1.49467
1.38483
1.2408
1.06503
0.860978
0.633215
0.387458
0.130433
0.106577
0.31672
0.517997
0.705026
0.873123
1.01842
1.13787
1.22924
1.29095
1.32204
1.32205
1.29096
1.22925
1.13788
1.01842
0.873129
0.705031
0.518
0.316721
0.106578
0.0857336
0.254851
0.417032
0.568016
0.704029
0.821885
0.919018
0.993471
1.04384
1.06925
1.06925
1.04385
0.993479
0.919026
0.821892
0.704033
0.568018
0.417032
0.25485
0.0857331
0.0672406
0.199919
0.327266
0.445979
0.553097
0.646081
0.722852
0.781788
0.821712
0.841861
0.841863
0.821717
0.781795
0.722858
0.646086
0.553097
0.445976
0.327262
0.199914
0.0672387
0.050551
0.150318
0.246134
0.335537
0.416301
0.486497
0.544524
0.589121
0.619358
0.634627
0.634628
0.619361
0.589126
0.544528
0.486497
0.416297
0.335529
0.246125
0.15031
0.0505476
0.0351958
0.104667
0.171414
0.233732
0.290073
0.339083
0.379631
0.410817
0.431974
0.442662
0.442663
0.431976
0.410819
0.379631
0.33908
0.290065
0.233722
0.171403
0.104658
0.0351921
0.0207596
0.061739
0.10112
0.137902
0.171172
0.200129
0.224099
0.242543
0.255059
0.261384
0.261385
0.25506
0.242543
0.224097
0.200125
0.171165
0.137892
0.10111
0.0617308
0.0207564
0.00686109
0.0204052
0.0334221
0.045582
0.0565834
0.0661611
0.0740914
0.0801946
0.0843371
0.0864306
0.0864309
0.0843373
0.0801942
0.0740901
0.0661588
0.0565799
0.0455774
0.0334174
0.0204014
0.00685964
)
;

boundaryField
{
    left
    {
        type            fixedValue;
        value           uniform 0;
    }
    down
    {
        type            fixedValue;
        value           uniform 10;
    }
    up
    {
        type            fixedValue;
        value           uniform 0;
    }
    right
    {
        type            fixedValue;
        value           uniform 0;
    }
    frontAndBack
    {
        type            empty;
    }
}


// ************************************************************************* //
