/*--------------------------------*- C++ -*----------------------------------*\
| =========                 |                                                 |
| \\      /  F ield         | OpenFOAM: The Open Source CFD Toolbox           |
|  \\    /   O peration     | Version:  1.6                                   |
|   \\  /    A nd           | Web:      www.OpenFOAM.org                      |
|    \\/     M anipulation  |                                                 |
\*---------------------------------------------------------------------------*/
FoamFile
{
    version     2.0;
    format      ascii;
    class       volScalarField;
    location    "0.2";
    object      T;
}
// * * * * * * * * * * * * * * * * * * * * * * * * * * * * * * * * * * * * * //

dimensions      [0 0 0 0 0 0 0];

internalField   nonuniform List<scalar> 
40000
(
1.36575e-06
1.36355e-06
1.36243e-06
1.36158e-06
1.36092e-06
1.36041e-06
1.36005e-06
1.35983e-06
1.35976e-06
1.35983e-06
1.36003e-06
1.36036e-06
1.36082e-06
1.3614e-06
1.36208e-06
1.36284e-06
1.36367e-06
1.36452e-06
1.36532e-06
1.36591e-06
4.1355e-06
4.12937e-06
4.12615e-06
4.12366e-06
4.12168e-06
4.12015e-06
4.11906e-06
4.11841e-06
4.11819e-06
4.11839e-06
4.11901e-06
4.12003e-06
4.12143e-06
4.12318e-06
4.12524e-06
4.12757e-06
4.13009e-06
4.13269e-06
4.13521e-06
4.13726e-06
7.022e-06
7.01244e-06
7.00727e-06
7.00315e-06
6.99984e-06
6.99728e-06
6.99545e-06
6.99435e-06
6.99398e-06
6.99433e-06
6.99539e-06
6.99713e-06
6.99952e-06
7.00251e-06
7.00604e-06
7.01002e-06
7.01435e-06
7.01887e-06
7.02333e-06
7.02728e-06
1.01095e-05
1.00965e-05
1.00894e-05
1.00836e-05
1.00789e-05
1.00753e-05
1.00727e-05
1.00711e-05
1.00706e-05
1.00711e-05
1.00727e-05
1.00752e-05
1.00787e-05
1.0083e-05
1.00881e-05
1.00939e-05
1.01002e-05
1.01069e-05
1.01135e-05
1.01195e-05
1.34869e-05
1.34701e-05
1.34609e-05
1.34534e-05
1.34472e-05
1.34424e-05
1.3439e-05
1.3437e-05
1.34363e-05
1.3437e-05
1.34391e-05
1.34425e-05
1.34472e-05
1.3453e-05
1.34599e-05
1.34677e-05
1.34762e-05
1.34852e-05
1.34943e-05
1.35026e-05
1.72502e-05
1.72294e-05
1.72179e-05
1.72085e-05
1.72007e-05
1.71947e-05
1.71904e-05
1.71878e-05
1.7187e-05
1.7188e-05
1.71907e-05
1.71951e-05
1.72011e-05
1.72086e-05
1.72175e-05
1.72275e-05
1.72385e-05
1.72502e-05
1.7262e-05
1.72729e-05
2.15059e-05
2.14806e-05
2.14665e-05
2.14549e-05
2.14454e-05
2.1438e-05
2.14327e-05
2.14296e-05
2.14287e-05
2.14299e-05
2.14334e-05
2.14389e-05
2.14464e-05
2.14559e-05
2.1467e-05
2.14796e-05
2.14935e-05
2.15081e-05
2.15229e-05
2.15367e-05
2.6373e-05
2.63425e-05
2.63255e-05
2.63116e-05
2.63002e-05
2.62912e-05
2.62849e-05
2.62812e-05
2.62801e-05
2.62817e-05
2.6286e-05
2.62928e-05
2.63021e-05
2.63137e-05
2.63274e-05
2.6343e-05
2.636e-05
2.63781e-05
2.63964e-05
2.64134e-05
3.19859e-05
3.19496e-05
3.19295e-05
3.19129e-05
3.18993e-05
3.18887e-05
3.18812e-05
3.18769e-05
3.18757e-05
3.18778e-05
3.18831e-05
3.18914e-05
3.19027e-05
3.19168e-05
3.19334e-05
3.19523e-05
3.1973e-05
3.19949e-05
3.20171e-05
3.20377e-05
3.84977e-05
3.84551e-05
3.84314e-05
3.84119e-05
3.83959e-05
3.83835e-05
3.83748e-05
3.83698e-05
3.83686e-05
3.83712e-05
3.83776e-05
3.83877e-05
3.84013e-05
3.84182e-05
3.84382e-05
3.84608e-05
3.84856e-05
3.85119e-05
3.85385e-05
3.85632e-05
4.60835e-05
4.60337e-05
4.60061e-05
4.59834e-05
4.59649e-05
4.59506e-05
4.59405e-05
4.59349e-05
4.59338e-05
4.59371e-05
4.59448e-05
4.59568e-05
4.5973e-05
4.59931e-05
4.60168e-05
4.60437e-05
4.60731e-05
4.61043e-05
4.61359e-05
4.61652e-05
5.49435e-05
5.48858e-05
5.4854e-05
5.48279e-05
5.48067e-05
5.47904e-05
5.4779e-05
5.47728e-05
5.47718e-05
5.47759e-05
5.47852e-05
5.47995e-05
5.48186e-05
5.48423e-05
5.48701e-05
5.49017e-05
5.49363e-05
5.49729e-05
5.501e-05
5.50445e-05
6.53072e-05
6.5241e-05
6.52047e-05
6.51751e-05
6.51511e-05
6.51328e-05
6.51202e-05
6.51135e-05
6.51127e-05
6.51179e-05
6.5129e-05
6.51458e-05
6.51681e-05
6.51956e-05
6.5228e-05
6.52647e-05
6.5305e-05
6.53476e-05
6.53908e-05
6.5431e-05
7.74374e-05
7.73623e-05
7.73214e-05
7.72882e-05
7.72615e-05
7.72412e-05
7.72276e-05
7.72205e-05
7.72203e-05
7.72267e-05
7.72397e-05
7.72593e-05
7.72851e-05
7.73169e-05
7.73542e-05
7.73964e-05
7.74426e-05
7.74917e-05
7.75415e-05
7.7588e-05
9.16349e-05
9.15507e-05
9.15052e-05
9.14687e-05
9.14395e-05
9.14175e-05
9.14029e-05
9.13958e-05
9.13962e-05
9.14041e-05
9.14194e-05
9.1442e-05
9.14715e-05
9.15077e-05
9.15501e-05
9.15981e-05
9.16506e-05
9.17065e-05
9.17633e-05
9.18163e-05
0.000108243
0.00010815
0.000108101
0.000108061
0.00010803
0.000108006
0.000107991
0.000107984
0.000107986
0.000107995
0.000108013
0.000108039
0.000108072
0.000108113
0.000108161
0.000108214
0.000108273
0.000108336
0.0001084
0.00010846
0.000127654
0.000127553
0.0001275
0.000127458
0.000127425
0.000127401
0.000127386
0.00012738
0.000127383
0.000127394
0.000127414
0.000127443
0.000127481
0.000127526
0.000127578
0.000127638
0.000127703
0.000127772
0.000127843
0.00012791
0.000150314
0.000150206
0.000150151
0.000150108
0.000150074
0.00015005
0.000150036
0.000150031
0.000150035
0.000150049
0.000150072
0.000150104
0.000150145
0.000150194
0.000150251
0.000150316
0.000150386
0.000150462
0.000150539
0.000150612
0.000176729
0.000176618
0.000176562
0.000176519
0.000176486
0.000176463
0.00017645
0.000176447
0.000176453
0.000176469
0.000176495
0.00017653
0.000176574
0.000176627
0.000176688
0.000176756
0.000176832
0.000176912
0.000176994
0.000177073
0.000207478
0.000207366
0.000207311
0.00020727
0.000207239
0.000207218
0.000207208
0.000207207
0.000207216
0.000207235
0.000207263
0.0002073
0.000207347
0.000207402
0.000207466
0.000207537
0.000207616
0.000207699
0.000207785
0.000207867
0.000243213
0.000243106
0.000243055
0.000243017
0.000242991
0.000242974
0.000242966
0.000242969
0.000242981
0.000243002
0.000243032
0.000243072
0.00024312
0.000243177
0.000243242
0.000243314
0.000243393
0.000243477
0.000243564
0.000243648
0.000284678
0.000284581
0.000284538
0.000284507
0.000284486
0.000284474
0.000284471
0.000284478
0.000284493
0.000284516
0.000284549
0.000284589
0.000284638
0.000284694
0.000284758
0.000284828
0.000284905
0.000284987
0.000285072
0.000285154
0.000332718
0.000332638
0.000332605
0.000332583
0.00033257
0.000332565
0.000332568
0.000332579
0.000332598
0.000332624
0.000332657
0.000332697
0.000332745
0.000332799
0.000332859
0.000332925
0.000332997
0.000333073
0.000333151
0.000333228
0.000388295
0.000388238
0.000388219
0.000388209
0.000388206
0.000388209
0.000388219
0.000388235
0.000388257
0.000388284
0.000388318
0.000388357
0.000388401
0.00038845
0.000388504
0.000388562
0.000388625
0.00038869
0.000388758
0.000388824
0.000452506
0.000452479
0.000452476
0.00045248
0.000452488
0.0004525
0.000452517
0.000452538
0.000452563
0.000452592
0.000452624
0.00045266
0.000452698
0.00045274
0.000452785
0.000452831
0.000452881
0.000452931
0.000452983
0.000453034
0.000526608
0.000526615
0.00052663
0.000526648
0.000526668
0.00052669
0.000526714
0.00052674
0.000526767
0.000526795
0.000526824
0.000526854
0.000526885
0.000526917
0.000526948
0.00052698
0.000527012
0.000527044
0.000527075
0.000527105
0.000612045
0.000612088
0.000612122
0.000612154
0.000612185
0.000612216
0.000612245
0.000612273
0.0006123
0.000612326
0.00061235
0.000612372
0.000612393
0.000612411
0.000612427
0.00061244
0.000612451
0.00061246
0.000612466
0.000612471
0.000710486
0.000710563
0.000710613
0.000710657
0.000710697
0.000710733
0.000710765
0.000710794
0.000710818
0.000710839
0.000710855
0.000710866
0.000710873
0.000710876
0.000710873
0.000710865
0.000710853
0.000710835
0.000710815
0.000710792
0.000823868
0.000823973
0.000824033
0.000824084
0.000824128
0.000824166
0.000824197
0.000824222
0.00082424
0.000824251
0.000824256
0.000824254
0.000824245
0.000824229
0.000824206
0.000824176
0.000824139
0.000824096
0.000824048
0.000823999
0.000954449
0.000954568
0.000954632
0.000954683
0.000954725
0.000954758
0.000954783
0.000954799
0.000954806
0.000954805
0.000954795
0.000954777
0.00095475
0.000954714
0.00095467
0.000954618
0.000954558
0.000954492
0.00095442
0.000954349
0.00110487
0.00110498
0.00110504
0.00110509
0.00110512
0.00110514
0.00110515
0.00110515
0.00110515
0.00110513
0.0011051
0.00110506
0.00110502
0.00110496
0.0011049
0.00110483
0.00110475
0.00110467
0.00110458
0.0011045
0.00127821
0.00127831
0.00127835
0.00127838
0.00127839
0.0012784
0.00127839
0.00127838
0.00127835
0.00127831
0.00127827
0.00127821
0.00127815
0.00127808
0.001278
0.00127792
0.00127783
0.00127774
0.00127765
0.00127756
0.00147809
0.00147816
0.00147817
0.00147818
0.00147817
0.00147816
0.00147813
0.00147809
0.00147805
0.00147799
0.00147793
0.00147786
0.00147779
0.0014777
0.00147762
0.00147753
0.00147745
0.00147736
0.00147728
0.0014772
0.00170873
0.00170875
0.00170874
0.00170872
0.00170869
0.00170865
0.0017086
0.00170855
0.00170849
0.00170842
0.00170835
0.00170827
0.00170819
0.00170811
0.00170803
0.00170795
0.00170788
0.00170781
0.00170775
0.0017077
0.00197502
0.00197499
0.00197495
0.00197491
0.00197486
0.00197481
0.00197475
0.00197468
0.00197461
0.00197454
0.00197447
0.00197439
0.00197432
0.00197425
0.00197419
0.00197414
0.00197409
0.00197405
0.00197403
0.00197402
0.00228261
0.00228254
0.00228249
0.00228243
0.00228237
0.00228231
0.00228225
0.00228218
0.00228212
0.00228206
0.002282
0.00228194
0.0022819
0.00228185
0.00228182
0.0022818
0.00228179
0.0022818
0.00228181
0.00228184
0.002638
0.00263791
0.00263785
0.00263779
0.00263774
0.00263768
0.00263763
0.00263759
0.00263754
0.00263751
0.00263748
0.00263745
0.00263744
0.00263744
0.00263745
0.00263747
0.0026375
0.00263755
0.0026376
0.00263766
0.0030486
0.00304851
0.00304846
0.00304842
0.00304838
0.00304835
0.00304833
0.00304832
0.00304831
0.00304831
0.00304832
0.00304835
0.00304838
0.00304842
0.00304848
0.00304854
0.00304861
0.00304869
0.00304877
0.00304884
0.00352289
0.00352282
0.00352279
0.00352278
0.00352277
0.00352278
0.00352279
0.00352282
0.00352285
0.0035229
0.00352296
0.00352303
0.00352311
0.00352319
0.00352329
0.00352338
0.00352348
0.00352357
0.00352366
0.00352373
0.0040705
0.00407048
0.00407048
0.0040705
0.00407053
0.00407057
0.00407062
0.00407068
0.00407076
0.00407085
0.00407095
0.00407106
0.00407117
0.00407129
0.0040714
0.00407151
0.00407161
0.0040717
0.00407177
0.00407181
0.00470249
0.0047025
0.00470253
0.00470258
0.00470263
0.0047027
0.00470278
0.00470287
0.00470298
0.00470309
0.00470321
0.00470334
0.00470347
0.00470359
0.00470371
0.00470381
0.00470389
0.00470395
0.00470398
0.00470399
0.00543148
0.00543153
0.00543158
0.00543163
0.0054317
0.00543178
0.00543187
0.00543197
0.00543208
0.00543219
0.00543231
0.00543243
0.00543254
0.00543264
0.00543273
0.00543281
0.00543285
0.00543287
0.00543286
0.00543283
0.00627205
0.0062721
0.00627215
0.0062722
0.00627226
0.00627233
0.00627241
0.00627249
0.00627258
0.00627267
0.00627275
0.00627284
0.00627291
0.00627297
0.00627302
0.00627304
0.00627305
0.00627303
0.00627299
0.00627293
0.00724095
0.00724099
0.00724102
0.00724106
0.0072411
0.00724115
0.00724119
0.00724124
0.00724129
0.00724133
0.00724137
0.0072414
0.00724142
0.00724143
0.00724142
0.0072414
0.00724137
0.00724132
0.00724127
0.00724122
0.00835753
0.00835755
0.00835756
0.00835757
0.00835759
0.00835761
0.00835762
0.00835763
0.00835764
0.00835763
0.00835762
0.0083576
0.00835756
0.00835752
0.00835747
0.00835742
0.00835736
0.00835731
0.00835727
0.00835725
0.00964407
0.00964406
0.00964405
0.00964405
0.00964405
0.00964404
0.00964403
0.00964402
0.00964399
0.00964396
0.00964391
0.00964385
0.00964378
0.00964371
0.00964364
0.00964357
0.00964352
0.00964348
0.00964347
0.00964348
0.0111262
0.0111261
0.0111261
0.0111261
0.0111261
0.0111261
0.0111261
0.0111261
0.011126
0.011126
0.0111259
0.0111259
0.0111258
0.0111257
0.0111256
0.0111256
0.0111255
0.0111255
0.0111255
0.0111256
0.0128331
0.0128331
0.0128331
0.0128331
0.0128331
0.0128331
0.0128331
0.0128331
0.0128331
0.0128331
0.012833
0.012833
0.0128329
0.0128328
0.0128328
0.0128327
0.0128327
0.0128327
0.0128327
0.0128328
0.0147986
0.0147986
0.0147986
0.0147986
0.0147986
0.0147987
0.0147987
0.0147987
0.0147987
0.0147987
0.0147987
0.0147986
0.0147986
0.0147986
0.0147985
0.0147985
0.0147985
0.0147985
0.0147985
0.0147985
0.0170611
0.0170611
0.0170611
0.0170611
0.0170611
0.0170612
0.0170612
0.0170612
0.0170612
0.0170613
0.0170613
0.0170613
0.0170612
0.0170612
0.0170612
0.0170612
0.0170612
0.0170611
0.0170611
0.0170611
0.0196645
0.0196645
0.0196645
0.0196645
0.0196646
0.0196646
0.0196646
0.0196646
0.0196647
0.0196647
0.0196647
0.0196647
0.0196647
0.0196647
0.0196647
0.0196646
0.0196646
0.0196646
0.0196646
0.0196645
0.0226593
0.0226593
0.0226593
0.0226593
0.0226593
0.0226593
0.0226594
0.0226594
0.0226594
0.0226594
0.0226594
0.0226594
0.0226594
0.0226594
0.0226594
0.0226594
0.0226593
0.0226593
0.0226593
0.0226593
0.0261032
0.0261032
0.0261032
0.0261032
0.0261032
0.0261032
0.0261031
0.0261031
0.0261031
0.0261031
0.0261031
0.0261031
0.0261031
0.0261031
0.0261031
0.0261031
0.0261032
0.0261032
0.0261032
0.0261032
0.0300622
0.0300622
0.0300622
0.0300622
0.0300621
0.0300621
0.0300621
0.030062
0.030062
0.030062
0.030062
0.030062
0.030062
0.030062
0.0300621
0.0300621
0.0300622
0.0300622
0.0300622
0.0300623
0.0346118
0.0346118
0.0346117
0.0346117
0.0346117
0.0346116
0.0346115
0.0346115
0.0346114
0.0346114
0.0346114
0.0346114
0.0346115
0.0346115
0.0346116
0.0346117
0.0346117
0.0346118
0.0346118
0.0346118
0.039838
0.039838
0.039838
0.0398379
0.0398378
0.0398378
0.0398377
0.0398377
0.0398376
0.0398376
0.0398376
0.0398376
0.0398376
0.0398377
0.0398378
0.0398378
0.0398379
0.0398379
0.039838
0.0398379
0.0458392
0.0458392
0.0458392
0.0458391
0.0458391
0.045839
0.045839
0.0458389
0.0458388
0.0458388
0.0458388
0.0458388
0.0458388
0.0458388
0.0458388
0.0458389
0.0458389
0.0458389
0.0458389
0.0458389
0.0527277
0.0527277
0.0527277
0.0527276
0.0527276
0.0527275
0.0527275
0.0527274
0.0527273
0.0527273
0.0527272
0.0527272
0.0527272
0.0527271
0.0527272
0.0527272
0.0527272
0.0527272
0.0527272
0.0527272
0.0606315
0.0606315
0.0606315
0.0606315
0.0606314
0.0606314
0.0606313
0.0606312
0.0606312
0.0606311
0.060631
0.060631
0.0606309
0.0606309
0.0606309
0.0606309
0.0606309
0.0606309
0.060631
0.060631
0.0696965
0.0696965
0.0696965
0.0696964
0.0696964
0.0696964
0.0696963
0.0696963
0.0696962
0.0696961
0.0696961
0.069696
0.069696
0.069696
0.069696
0.069696
0.0696961
0.0696962
0.0696962
0.0696963
0.0800886
0.0800886
0.0800886
0.0800886
0.0800886
0.0800885
0.0800885
0.0800884
0.0800884
0.0800883
0.0800883
0.0800883
0.0800883
0.0800884
0.0800884
0.0800885
0.0800886
0.0800887
0.0800887
0.0800888
0.0919965
0.0919965
0.0919965
0.0919965
0.0919965
0.0919965
0.0919964
0.0919964
0.0919964
0.0919964
0.0919964
0.0919964
0.0919965
0.0919966
0.0919966
0.0919967
0.0919967
0.0919968
0.0919968
0.0919967
0.105635
0.105635
0.105635
0.105635
0.105635
0.105635
0.105635
0.105635
0.105635
0.105635
0.105635
0.105635
0.105635
0.105635
0.105635
0.105635
0.105635
0.105635
0.105635
0.105634
0.121247
0.121247
0.121246
0.121246
0.121246
0.121246
0.121246
0.121246
0.121246
0.121246
0.121246
0.121247
0.121247
0.121246
0.121246
0.121246
0.121246
0.121246
0.121246
0.121246
0.139108
0.139108
0.139108
0.139108
0.139108
0.139108
0.139108
0.139108
0.139108
0.139108
0.139108
0.139108
0.139108
0.139108
0.139108
0.139108
0.139108
0.139108
0.139108
0.139108
0.159532
0.159532
0.159532
0.159532
0.159532
0.159532
0.159532
0.159532
0.159533
0.159533
0.159533
0.159532
0.159532
0.159532
0.159532
0.159532
0.159532
0.159532
0.159532
0.159532
0.182874
0.182874
0.182874
0.182874
0.182874
0.182874
0.182874
0.182874
0.182874
0.182874
0.182874
0.182874
0.182874
0.182873
0.182873
0.182873
0.182873
0.182873
0.182874
0.182874
0.209532
0.209532
0.209532
0.209532
0.209532
0.209532
0.209532
0.209532
0.209532
0.209532
0.209532
0.209532
0.209532
0.209532
0.209532
0.209532
0.209532
0.209532
0.209532
0.209532
0.239959
0.239959
0.239959
0.239959
0.239959
0.239959
0.239959
0.239959
0.239959
0.239959
0.239959
0.239959
0.239959
0.239959
0.239959
0.239959
0.239959
0.239959
0.239959
0.239958
0.274663
0.274663
0.274663
0.274663
0.274663
0.274663
0.274663
0.274663
0.274663
0.274663
0.274663
0.274663
0.274664
0.274664
0.274664
0.274663
0.274663
0.274663
0.274663
0.274663
0.314219
0.314219
0.314219
0.314219
0.314219
0.314219
0.314219
0.314219
0.314219
0.314219
0.314219
0.314219
0.314219
0.314219
0.314219
0.314219
0.314219
0.314219
0.314219
0.314219
0.35927
0.35927
0.35927
0.35927
0.35927
0.35927
0.35927
0.35927
0.35927
0.35927
0.35927
0.35927
0.35927
0.35927
0.35927
0.35927
0.35927
0.35927
0.35927
0.35927
0.410539
0.410539
0.410539
0.410539
0.410539
0.410539
0.410539
0.410539
0.410539
0.410539
0.410539
0.410539
0.410539
0.410539
0.410539
0.410539
0.410539
0.410538
0.410538
0.410538
0.468833
0.468833
0.468833
0.468833
0.468833
0.468833
0.468834
0.468834
0.468833
0.468833
0.468833
0.468833
0.468833
0.468833
0.468833
0.468833
0.468833
0.468833
0.468833
0.468833
0.535057
0.535057
0.535058
0.535058
0.535058
0.535058
0.535058
0.535058
0.535058
0.535058
0.535058
0.535058
0.535058
0.535058
0.535058
0.535058
0.535058
0.535058
0.535058
0.535058
0.610218
0.610218
0.610218
0.610218
0.610219
0.610219
0.610219
0.610219
0.610219
0.610219
0.610219
0.610219
0.610219
0.610219
0.610219
0.610219
0.610219
0.610219
0.610219
0.610219
0.695435
0.695435
0.695435
0.695435
0.695435
0.695435
0.695435
0.695435
0.695435
0.695435
0.695435
0.695435
0.695435
0.695435
0.695435
0.695435
0.695435
0.695435
0.695435
0.695435
0.791949
0.791949
0.791949
0.791949
0.791949
0.791949
0.791949
0.791949
0.791949
0.791949
0.791949
0.791949
0.791949
0.791949
0.791949
0.791949
0.791949
0.791948
0.791949
0.791948
0.901129
0.901129
0.90113
0.901129
0.90113
0.901129
0.90113
0.90113
0.90113
0.90113
0.90113
0.90113
0.90113
0.90113
0.90113
0.901129
0.901129
0.901129
0.901129
0.901129
1.02449
1.02449
1.02449
1.02449
1.02449
1.02449
1.02449
1.02449
1.02449
1.02449
1.02449
1.02449
1.02449
1.02449
1.02449
1.02449
1.02449
1.02449
1.02449
1.02449
1.16368
1.16368
1.16368
1.16368
1.16368
1.16368
1.16368
1.16368
1.16368
1.16368
1.16368
1.16368
1.16368
1.16368
1.16368
1.16368
1.16368
1.16368
1.16368
1.16368
1.3205
1.3205
1.3205
1.3205
1.3205
1.3205
1.3205
1.3205
1.3205
1.3205
1.3205
1.3205
1.3205
1.3205
1.3205
1.3205
1.3205
1.3205
1.3205
1.3205
1.49693
1.49693
1.49693
1.49693
1.49693
1.49693
1.49693
1.49693
1.49693
1.49693
1.49693
1.49693
1.49693
1.49693
1.49693
1.49693
1.49693
1.49693
1.49693
1.49693
1.69507
1.69507
1.69507
1.69507
1.69507
1.69507
1.69507
1.69507
1.69507
1.69507
1.69507
1.69507
1.69507
1.69507
1.69507
1.69507
1.69507
1.69507
1.69507
1.69507
1.91719
1.91719
1.91719
1.91719
1.91719
1.91719
1.91719
1.91719
1.91719
1.91719
1.91719
1.91719
1.91719
1.91719
1.91719
1.91719
1.91719
1.91719
1.91719
1.91719
2.1657
2.1657
2.1657
2.1657
2.1657
2.1657
2.1657
2.1657
2.1657
2.1657
2.1657
2.1657
2.1657
2.1657
2.1657
2.1657
2.1657
2.1657
2.1657
2.1657
2.44312
2.44312
2.44312
2.44312
2.44312
2.44312
2.44312
2.44312
2.44312
2.44312
2.44312
2.44312
2.44312
2.44312
2.44312
2.44312
2.44312
2.44312
2.44312
2.44312
2.75206
2.75206
2.75206
2.75206
2.75206
2.75206
2.75206
2.75206
2.75206
2.75206
2.75206
2.75206
2.75206
2.75206
2.75206
2.75206
2.75206
2.75206
2.75206
2.75206
3.09521
3.09521
3.09521
3.09521
3.09521
3.09521
3.09521
3.09521
3.09521
3.09521
3.09521
3.09521
3.09521
3.09521
3.09521
3.09521
3.09521
3.09521
3.09521
3.09521
3.47521
3.47521
3.47521
3.47521
3.47521
3.47521
3.47521
3.47521
3.47521
3.47521
3.47521
3.47521
3.47521
3.47521
3.47521
3.47521
3.47521
3.47521
3.47521
3.47521
3.89463
3.89463
3.89463
3.89463
3.89463
3.89463
3.89463
3.89463
3.89463
3.89463
3.89463
3.89463
3.89463
3.89463
3.89463
3.89463
3.89463
3.89463
3.89463
3.89463
4.35583
4.35583
4.35583
4.35583
4.35583
4.35583
4.35583
4.35583
4.35583
4.35583
4.35583
4.35583
4.35583
4.35583
4.35583
4.35583
4.35583
4.35583
4.35583
4.35583
4.86085
4.86084
4.86085
4.86084
4.86085
4.86084
4.86085
4.86084
4.86085
4.86085
4.86084
4.86085
4.86084
4.86085
4.86084
4.86085
4.86084
4.86084
4.86085
4.86084
5.41115
5.41115
5.41115
5.41115
5.41115
5.41115
5.41115
5.41115
5.41115
5.41115
5.41115
5.41115
5.41115
5.41115
5.41115
5.41115
5.41115
5.41115
5.41115
5.41115
6.00746
6.00746
6.00746
6.00746
6.00746
6.00746
6.00746
6.00746
6.00746
6.00746
6.00746
6.00746
6.00746
6.00746
6.00746
6.00746
6.00746
6.00746
6.00746
6.00746
6.64942
6.64942
6.64942
6.64942
6.64942
6.64942
6.64942
6.64942
6.64942
6.64942
6.64942
6.64942
6.64942
6.64942
6.64942
6.64942
6.64942
6.64942
6.64942
6.64942
7.33517
7.33517
7.33517
7.33517
7.33517
7.33517
7.33517
7.33517
7.33517
7.33517
7.33517
7.33517
7.33517
7.33517
7.33517
7.33517
7.33517
7.33517
7.33517
7.33517
8.06092
8.06092
8.06093
8.06092
8.06092
8.06092
8.06092
8.06092
8.06092
8.06092
8.06092
8.06092
8.06092
8.06092
8.06092
8.06092
8.06092
8.06092
8.06092
8.06092
8.82028
8.82028
8.82028
8.82028
8.82028
8.82028
8.82028
8.82028
8.82028
8.82028
8.82028
8.82028
8.82028
8.82028
8.82028
8.82028
8.82028
8.82028
8.82028
8.82028
9.6035
9.6035
9.6035
9.6035
9.6035
9.6035
9.6035
9.6035
9.6035
9.6035
9.6035
9.6035
9.6035
9.6035
9.6035
9.6035
9.6035
9.6035
9.6035
9.6035
1.36355e-06
1.36167e-06
1.36062e-06
1.35979e-06
1.35914e-06
1.35864e-06
1.35828e-06
1.35806e-06
1.35799e-06
1.35806e-06
1.35826e-06
1.3586e-06
1.35906e-06
1.35964e-06
1.36033e-06
1.3611e-06
1.36193e-06
1.3628e-06
1.36366e-06
1.36438e-06
4.12937e-06
4.1242e-06
4.12119e-06
4.11876e-06
4.1168e-06
4.11529e-06
4.11421e-06
4.11357e-06
4.11335e-06
4.11356e-06
4.11418e-06
4.11521e-06
4.11661e-06
4.11837e-06
4.12045e-06
4.12279e-06
4.12535e-06
4.12802e-06
4.13071e-06
4.13326e-06
7.01244e-06
7.0044e-06
6.99953e-06
6.99552e-06
6.99225e-06
6.98971e-06
6.9879e-06
6.98681e-06
6.98645e-06
6.98681e-06
6.98788e-06
6.98963e-06
6.99203e-06
6.99503e-06
6.99858e-06
7.0026e-06
7.00699e-06
7.01164e-06
7.01641e-06
7.02124e-06
1.00965e-05
1.00856e-05
1.00788e-05
1.00732e-05
1.00686e-05
1.0065e-05
1.00624e-05
1.00608e-05
1.00603e-05
1.00609e-05
1.00624e-05
1.0065e-05
1.00685e-05
1.00728e-05
1.0078e-05
1.00838e-05
1.00902e-05
1.0097e-05
1.01041e-05
1.01115e-05
1.34701e-05
1.34561e-05
1.34474e-05
1.344e-05
1.34339e-05
1.34292e-05
1.34258e-05
1.34238e-05
1.34231e-05
1.34239e-05
1.3426e-05
1.34294e-05
1.34341e-05
1.34399e-05
1.34469e-05
1.34547e-05
1.34634e-05
1.34726e-05
1.34823e-05
1.34925e-05
1.72294e-05
1.72119e-05
1.7201e-05
1.71918e-05
1.71842e-05
1.71782e-05
1.71739e-05
1.71714e-05
1.71706e-05
1.71716e-05
1.71743e-05
1.71787e-05
1.71848e-05
1.71923e-05
1.72012e-05
1.72114e-05
1.72225e-05
1.72345e-05
1.72471e-05
1.72603e-05
2.14806e-05
2.14592e-05
2.14459e-05
2.14346e-05
2.14252e-05
2.14179e-05
2.14126e-05
2.14095e-05
2.14086e-05
2.14099e-05
2.14134e-05
2.14189e-05
2.14265e-05
2.1436e-05
2.14472e-05
2.14599e-05
2.1474e-05
2.1489e-05
2.15048e-05
2.15215e-05
2.63425e-05
2.63168e-05
2.63008e-05
2.62872e-05
2.62759e-05
2.6267e-05
2.62607e-05
2.6257e-05
2.6256e-05
2.62577e-05
2.6262e-05
2.62688e-05
2.62782e-05
2.62898e-05
2.63036e-05
2.63193e-05
2.63366e-05
2.63551e-05
2.63746e-05
2.63952e-05
3.19496e-05
3.19191e-05
3.19001e-05
3.18839e-05
3.18704e-05
3.18599e-05
3.18525e-05
3.18482e-05
3.18471e-05
3.18492e-05
3.18544e-05
3.18628e-05
3.18742e-05
3.18884e-05
3.19051e-05
3.19241e-05
3.19451e-05
3.19676e-05
3.19913e-05
3.20162e-05
3.84551e-05
3.84191e-05
3.83967e-05
3.83776e-05
3.83618e-05
3.83495e-05
3.83408e-05
3.83359e-05
3.83348e-05
3.83374e-05
3.83439e-05
3.8354e-05
3.83677e-05
3.83847e-05
3.84048e-05
3.84276e-05
3.84528e-05
3.84798e-05
3.85081e-05
3.8538e-05
4.60337e-05
4.59917e-05
4.59656e-05
4.59434e-05
4.5925e-05
4.59108e-05
4.59008e-05
4.58953e-05
4.58941e-05
4.58975e-05
4.59053e-05
4.59174e-05
4.59337e-05
4.59539e-05
4.59778e-05
4.60049e-05
4.60348e-05
4.60668e-05
4.61005e-05
4.61359e-05
5.48858e-05
5.48372e-05
5.4807e-05
5.47815e-05
5.47605e-05
5.47442e-05
5.47329e-05
5.47268e-05
5.47258e-05
5.473e-05
5.47394e-05
5.47537e-05
5.47729e-05
5.47968e-05
5.48248e-05
5.48567e-05
5.48918e-05
5.49295e-05
5.49691e-05
5.50107e-05
6.5241e-05
6.51852e-05
6.51508e-05
6.51218e-05
6.5098e-05
6.50797e-05
6.50672e-05
6.50605e-05
6.50598e-05
6.50651e-05
6.50762e-05
6.50931e-05
6.51156e-05
6.51433e-05
6.5176e-05
6.52131e-05
6.52539e-05
6.52978e-05
6.53439e-05
6.53924e-05
7.73623e-05
7.72989e-05
7.72601e-05
7.72276e-05
7.72011e-05
7.71809e-05
7.71672e-05
7.71603e-05
7.716e-05
7.71665e-05
7.71797e-05
7.71994e-05
7.72254e-05
7.72574e-05
7.7295e-05
7.73377e-05
7.73847e-05
7.74352e-05
7.74884e-05
7.75444e-05
9.15507e-05
9.14796e-05
9.14365e-05
9.14006e-05
9.13715e-05
9.13496e-05
9.13351e-05
9.1328e-05
9.13285e-05
9.13365e-05
9.13519e-05
9.13746e-05
9.14044e-05
9.14409e-05
9.14837e-05
9.15322e-05
9.15857e-05
9.16432e-05
9.17039e-05
9.17679e-05
0.00010815
0.000108072
0.000108024
0.000107986
0.000107954
0.000107931
0.000107916
0.000107909
0.000107911
0.00010792
0.000107938
0.000107964
0.000107998
0.000108039
0.000108087
0.000108141
0.000108201
0.000108266
0.000108334
0.000108407
0.000127553
0.000127468
0.000127417
0.000127376
0.000127343
0.000127319
0.000127304
0.000127298
0.000127301
0.000127312
0.000127333
0.000127362
0.0001274
0.000127445
0.000127498
0.000127559
0.000127625
0.000127697
0.000127773
0.000127853
0.000150206
0.000150115
0.000150063
0.00015002
0.000149987
0.000149963
0.000149948
0.000149943
0.000149948
0.000149962
0.000149985
0.000150017
0.000150059
0.000150108
0.000150166
0.000150232
0.000150304
0.000150382
0.000150465
0.000150553
0.000176618
0.000176524
0.000176471
0.000176428
0.000176395
0.000176372
0.000176359
0.000176356
0.000176362
0.000176379
0.000176405
0.00017644
0.000176485
0.000176538
0.0001766
0.00017667
0.000176747
0.00017683
0.000176918
0.000177014
0.000207366
0.000207272
0.00020722
0.000207179
0.000207148
0.000207127
0.000207117
0.000207116
0.000207125
0.000207144
0.000207172
0.00020721
0.000207258
0.000207314
0.000207379
0.000207451
0.000207531
0.000207618
0.00020771
0.00020781
0.000243106
0.000243015
0.000242967
0.00024293
0.000242903
0.000242886
0.000242879
0.000242881
0.000242893
0.000242915
0.000242946
0.000242986
0.000243035
0.000243092
0.000243158
0.000243232
0.000243313
0.0002434
0.000243494
0.000243596
0.000284581
0.0002845
0.000284458
0.000284428
0.000284407
0.000284395
0.000284392
0.000284399
0.000284414
0.000284438
0.000284471
0.000284512
0.000284562
0.000284619
0.000284684
0.000284756
0.000284835
0.00028492
0.000285012
0.000285111
0.000332638
0.000332571
0.00033254
0.000332518
0.000332505
0.000332501
0.000332504
0.000332515
0.000332534
0.00033256
0.000332594
0.000332636
0.000332684
0.000332739
0.0003328
0.000332868
0.000332942
0.000333021
0.000333105
0.000333198
0.000388238
0.000388192
0.000388174
0.000388164
0.000388161
0.000388165
0.000388175
0.000388191
0.000388213
0.000388242
0.000388276
0.000388316
0.000388361
0.000388411
0.000388466
0.000388526
0.000388591
0.000388659
0.000388732
0.000388811
0.000452479
0.000452458
0.000452456
0.00045246
0.000452469
0.000452482
0.000452499
0.000452521
0.000452546
0.000452576
0.000452609
0.000452645
0.000452685
0.000452728
0.000452774
0.000452822
0.000452873
0.000452925
0.000452981
0.00045304
0.000526615
0.000526624
0.00052664
0.000526658
0.000526679
0.000526702
0.000526726
0.000526753
0.00052678
0.00052681
0.00052684
0.000526871
0.000526903
0.000526935
0.000526968
0.000527
0.000527033
0.000527066
0.000527099
0.000527132
0.000612088
0.000612128
0.000612162
0.000612194
0.000612227
0.000612258
0.000612289
0.000612318
0.000612346
0.000612373
0.000612398
0.000612421
0.000612442
0.000612461
0.000612477
0.000612491
0.000612502
0.00061251
0.000612516
0.000612518
0.000710563
0.000710632
0.000710681
0.000710726
0.000710767
0.000710805
0.000710838
0.000710868
0.000710893
0.000710915
0.000710932
0.000710944
0.000710951
0.000710953
0.000710951
0.000710942
0.000710929
0.00071091
0.000710885
0.000710854
0.000823973
0.000824064
0.000824123
0.000824175
0.000824221
0.00082426
0.000824292
0.000824318
0.000824337
0.000824349
0.000824354
0.000824352
0.000824343
0.000824326
0.000824302
0.000824271
0.000824232
0.000824185
0.000824131
0.000824067
0.000954568
0.000954671
0.000954733
0.000954786
0.000954829
0.000954863
0.000954889
0.000954905
0.000954913
0.000954912
0.000954902
0.000954883
0.000954855
0.000954818
0.000954772
0.000954717
0.000954654
0.000954583
0.000954503
0.000954412
0.00110498
0.00110509
0.00110514
0.00110518
0.00110522
0.00110524
0.00110525
0.00110525
0.00110525
0.00110523
0.0011052
0.00110516
0.00110511
0.00110506
0.00110499
0.00110492
0.00110483
0.00110475
0.00110465
0.00110454
0.00127831
0.00127839
0.00127843
0.00127846
0.00127847
0.00127848
0.00127847
0.00127845
0.00127843
0.00127839
0.00127834
0.00127828
0.00127822
0.00127814
0.00127806
0.00127797
0.00127788
0.00127779
0.00127768
0.00127758
0.00147816
0.00147821
0.00147822
0.00147823
0.00147822
0.0014782
0.00147817
0.00147813
0.00147808
0.00147803
0.00147796
0.00147789
0.00147781
0.00147772
0.00147764
0.00147755
0.00147746
0.00147736
0.00147728
0.00147719
0.00170875
0.00170876
0.00170875
0.00170872
0.00170869
0.00170865
0.0017086
0.00170854
0.00170848
0.0017084
0.00170833
0.00170825
0.00170816
0.00170808
0.001708
0.00170792
0.00170784
0.00170777
0.00170771
0.00170766
0.00197499
0.00197496
0.00197492
0.00197487
0.00197482
0.00197476
0.0019747
0.00197463
0.00197455
0.00197448
0.0019744
0.00197432
0.00197425
0.00197418
0.00197411
0.00197406
0.00197401
0.00197398
0.00197396
0.00197395
0.00228254
0.00228248
0.00228242
0.00228236
0.0022823
0.00228223
0.00228217
0.0022821
0.00228203
0.00228197
0.0022819
0.00228185
0.0022818
0.00228175
0.00228172
0.0022817
0.0022817
0.00228171
0.00228173
0.00228177
0.00263791
0.00263783
0.00263776
0.00263771
0.00263765
0.00263759
0.00263754
0.00263749
0.00263745
0.00263741
0.00263738
0.00263736
0.00263734
0.00263734
0.00263736
0.00263738
0.00263742
0.00263747
0.00263754
0.00263762
0.00304851
0.00304843
0.00304839
0.00304834
0.00304831
0.00304828
0.00304825
0.00304824
0.00304823
0.00304824
0.00304825
0.00304828
0.00304831
0.00304836
0.00304842
0.00304849
0.00304856
0.00304865
0.00304874
0.00304884
0.00352282
0.00352277
0.00352274
0.00352273
0.00352273
0.00352273
0.00352275
0.00352278
0.00352282
0.00352287
0.00352294
0.00352301
0.0035231