/*--------------------------------*- C++ -*----------------------------------*\
| =========                 |                                                 |
| \\      /  F ield         | OpenFOAM: The Open Source CFD Toolbox           |
|  \\    /   O peration     | Version:  2.1.0                                 |
|   \\  /    A nd           | Web:      www.OpenFOAM.org                      |
|    \\/     M anipulation  |                                                 |
\*---------------------------------------------------------------------------*/
FoamFile
{
    version     2.0;
    format      ascii;
    class       volScalarField;
    location    "24090";
    object      kr_o;
}
// * * * * * * * * * * * * * * * * * * * * * * * * * * * * * * * * * * * * * //

dimensions      [0 0 0 0 0 0 0];

internalField   nonuniform List<scalar> 
8000
(
0.0172999
0.0213772
0.0269828
0.0337416
0.0413686
0.0496391
0.0583757
0.0674425
0.0767108
0.0860448
0.0953262
0.104463
0.113392
0.122075
0.130495
0.138646
0.146529
0.15417
0.161599
0.168852
0.175968
0.18299
0.189968
0.196959
0.204033
0.211275
0.218798
0.226753
0.23535
0.244898
0.255866
0.269002
0.285596
0.307925
0.339852
0.386369
0.451145
0.519213
0.554451
0.56188
0.0213767
0.0254272
0.0309508
0.0375967
0.0451006
0.0532578
0.0619053
0.0709122
0.0801392
0.0894477
0.0987175
0.107855
0.116795
0.125499
0.133947
0.142127
0.150045
0.157725
0.165196
0.172492
0.179651
0.186713
0.193724
0.200737
0.207817
0.215047
0.222532
0.230422
0.238929
0.248365
0.259213
0.272253
0.288825
0.311299
0.343643
0.390749
0.455539
0.521814
0.555068
0.561933
0.0269825
0.0309507
0.0363316
0.0428074
0.050141
0.0581481
0.0666846
0.0756148
0.0847907
0.0940704
0.10333
0.112474
0.121431
0.130161
0.138638
0.146845
0.154793
0.162507
0.170012
0.17734
0.184523
0.191599
0.198606
0.205592
0.212613
0.219743
0.227081
0.234774
0.243035
0.252187
0.262731
0.275488
0.291857
0.314295
0.346858
0.394315
0.458969
0.523784
0.555535
0.561974
0.0337415
0.0375965
0.0428073
0.0490955
0.0562506
0.0641133
0.0725498
0.0814143
0.0905557
0.0998291
0.109106
0.118281
0.127281
0.136057
0.144574
0.152821
0.160813
0.168572
0.176121
0.183488
0.190701
0.19779
0.204784
0.21172
0.218641
0.225607
0.232705
0.240071
0.24792
0.256588
0.266612
0.278865
0.294821
0.317027
0.349625
0.39726
0.461708
0.525326
0.555904
0.562008
0.0413685
0.0451004
0.0501409
0.0562505
0.0632505
0.0710023
0.0793677
0.0882015
0.0973539
0.106676
0.116029
0.125294
0.134387
0.143245
0.151834
0.160157
0.168227
0.176066
0.183698
0.191144
0.198426
0.205565
0.212578
0.219484
0.226304
0.233074
0.239857
0.246767
0.254013
0.261949
0.271169
0.282637
0.297925
0.319687
0.352149
0.39984
0.464061
0.526657
0.55623
0.562038
0.049639
0.0532576
0.058148
0.0641133
0.0710023
0.0786821
0.0870224
0.0958881
0.105135
0.114609
0.124147
0.133603
0.142868
0.151871
0.160599
0.169062
0.17728
0.185274
0.193069
0.200682
0.208129
0.215417
0.222548
0.229513
0.236302
0.242905
0.249335
0.255661
0.262066
0.268931
0.27694
0.287224
0.301507
0.322574
0.354746
0.402409
0.466408
0.52802
0.556571
0.56207
0.0583756
0.0619051
0.0666844
0.0725497
0.0793676
0.0870223
0.0954041
0.1044
0.113881
0.123685
0.133608
0.143422
0.152982
0.162248
0.171228
0.179948
0.188438
0.196727
0.20484
0.212795
0.220601
0.22825
0.235721
0.242971
0.249931
0.256515
0.26264
0.268277
0.273536
0.278806
0.284929
0.293378
0.30614
0.326176
0.357892
0.405463
0.469223
0.529687
0.556989
0.562109
0.0674424
0.070912
0.0756146
0.0814141
0.0882013
0.095888
0.1044
0.113667
0.123607
0.134071
0.144763
0.155217
0.165302
0.175032
0.184463
0.19365
0.202648
0.211501
0.220242
0.228893
0.237458
0.245917
0.254218
0.262261
0.269898
0.276914
0.283043
0.288016
0.291713
0.29444
0.297296
0.302608
0.312873
0.331298
0.362306
0.409664
0.473073
0.531935
0.557532
0.562158
0.0767106
0.080139
0.0847905
0.0905554
0.0973537
0.105135
0.113881
0.123606
0.134357
0.14613
0.158541
0.170215
0.181241
0.191814
0.202091
0.212193
0.222217
0.232241
0.242325
0.252509
0.262797
0.273166
0.283541
0.293777
0.303603
0.312565
0.31996
0.324852
0.326327
0.324166
0.31992
0.31847
0.323764
0.33926
0.368992
0.415821
0.478547
0.53498
0.558222
0.562216
0.0860446
0.0894474
0.0940701
0.0998287
0.106676
0.114608
0.123685
0.134071
0.14613
0.160655
0.17891
0.193102
0.206046
0.218482
0.230784
0.243213
0.255983
0.269285
0.28331
0.298248
0.314266
0.331435
0.349615
0.36828
0.386365
0.402236
0.41385
0.418849
0.414385
0.397906
0.37114
0.348457
0.341643
0.351459
0.378896
0.424637
0.486065
0.538861
0.559029
0.562279
0.0953259
0.0987172
0.10333
0.109105
0.116029
0.124147
0.133607
0.144763
0.158541
0.17891
0.514764
0.52733
0.524997
0.524841
0.526062
0.528135
0.530759
0.533725
0.536871
0.54006
0.543166
0.546071
0.548669
0.550864
0.552575
0.553726
0.554193
0.553652
0.551077
0.542724
0.381262
0.363682
0.357032
0.365362
0.391489
0.436149
0.495573
0.543344
0.559874
0.562341
0.104463
0.107855
0.112473
0.118281
0.125294
0.133602
0.143421
0.155217
0.170215
0.193101
0.52733
0.560558
0.561262
0.561189
0.561201
0.561279
0.561395
0.561531
0.561672
0.561807
0.56193
0.562036
0.562123
0.56219
0.562238
0.562265
0.56227
0.562238
0.56213
0.56183
0.393171
0.377439
0.372
0.380534
0.406026
0.449927
0.506521
0.547972
0.560657
0.562394
0.113391
0.116795
0.121431
0.127281
0.134386
0.142868
0.152982
0.165302
0.181241
0.206046
0.524997
0.561262
0.562449
0.56247
0.56247
0.562471
0.562474
0.562477
0.562481
0.562484
0.562487
0.56249
0.562492
0.562493
0.562494
0.562495
0.562495
0.562494
0.562492
0.562486
0.40649
0.391685
0.387552
0.396753
0.422082
0.46535
0.518052
0.552238
0.561301
0.562435
0.122075
0.125499
0.130161
0.136057
0.143245
0.151871
0.162248
0.175032
0.191814
0.218481
0.524841
0.561189
0.56247
0.562499
0.562499
0.562499
0.562499
0.5625
0.5625
0.5625
0.5625
0.5625
0.5625
0.5625
0.5625
0.5625
0.5625
0.5625
0.5625
0.5625
0.421
0.406695
0.40377
0.413699
0.439291
0.481664
0.529229
0.555765
0.561774
0.562463
0.130495
0.133947
0.138637
0.144573
0.151834
0.160599
0.171228
0.184462
0.20209
0.230783
0.526062
0.561201
0.56247
0.562499
0.5625
0.5625
0.5625
0.5625
0.5625
0.5625
0.5625
0.5625
0.5625
0.5625
0.5625
0.5625
0.5625
0.5625
0.5625
0.5625
0.436459
0.422534
0.420623
0.431328
0.457223
0.498028
0.539219
0.558391
0.56209
0.56248
0.138645
0.142127
0.146844
0.152821
0.160156
0.169062
0.179948
0.19365
0.212192
0.243212
0.528135
0.561279
0.562471
0.562499
0.5625
0.5625
0.5625
0.5625
0.5625
0.5625
0.5625
0.5625
0.5625
0.5625
0.5625
0.5625
0.5625
0.5625
0.5625
0.5625
0.452562
0.439067
0.438024
0.449407
0.475333
0.513612
0.547415
0.560164
0.562282
0.56249
0.146529
0.150045
0.154793
0.160813
0.168227
0.177279
0.188437
0.202648
0.222216
0.255983
0.530759
0.561395
0.562474
0.562499
0.5625
0.5625
0.5625
0.5625
0.5625
0.5625
0.5625
0.5625
0.5625
0.5625
0.5625
0.5625
0.5625
0.5625
0.5625
0.5625
0.4689
0.455998
0.455686
0.467545
0.493033
0.527686
0.553513
0.561256
0.562391
0.562495
0.154169
0.157724
0.162506
0.168571
0.176066
0.185274
0.196726
0.2115
0.23224
0.269285
0.533725
0.561531
0.562477
0.5625
0.5625
0.5625
0.5625
0.5625
0.5625
0.5625
0.5625
0.5625
0.5625
0.5625
0.5625
0.5625
0.5625
0.5625
0.5625
0.5625
0.484989
0.47292
0.473222
0.485324
0.509787
0.539622
0.557579
0.561876
0.562448
0.562498
0.161599
0.165196
0.170011
0.17612
0.183697
0.193068
0.20484
0.220241
0.242325
0.283309
0.536871
0.561672
0.562481
0.5625
0.5625
0.5625
0.5625
0.5625
0.5625
0.5625
0.5625
0.5625
0.5625
0.5625
0.5625
0.5625
0.5625
0.5625
0.5625
0.5625
0.500374
0.489419
0.490282
0.502405
0.525087
0.548897
0.560007
0.562204
0.562476
0.562499
0.168852
0.172492
0.177339
0.183488
0.191143
0.200682
0.212795
0.228892
0.252508
0.298248
0.54006
0.561807
0.562484
0.5625
0.5625
0.5625
0.5625
0.5625
0.5625
0.5625
0.5625
0.5625
0.5625
0.5625
0.5625
0.5625
0.5625
0.5625
0.5625
0.5625
0.514727
0.505198
0.506634
0.518475
0.538298
0.555267
0.561321
0.562366
0.56249
0.5625
0.175968
0.179651
0.184523
0.190701
0.198426
0.208129
0.2206
0.237457
0.262797
0.314266
0.543166
0.56193
0.562487
0.5625
0.5625
0.5625
0.5625
0.5625
0.5625
0.5625
0.5625
0.5625
0.5625
0.5625
0.5625
0.5625
0.5625
0.5625
0.5625
0.5625
0.527832
0.520057
0.522052
0.53301
0.548643
0.559042
0.561975
0.562442
0.562496
0.5625
0.18299
0.186712
0.191598
0.197789
0.205565
0.215417
0.22825
0.245917
0.273165
0.331435
0.546071
0.562036
0.56249
0.5625
0.5625
0.5625
0.5625
0.5625
0.5625
0.5625
0.5625
0.5625
0.5625
0.5625
0.5625
0.5625
0.5625
0.5625
0.5625
0.5625
0.539383
0.533653
0.535996
0.545088
0.555605
0.560986
0.562278
0.562476
0.562498
0.5625
0.189968
0.193723
0.198606
0.204784
0.212578
0.222547
0.235721
0.254217
0.283541
0.349614
0.548669
0.562123
0.562492
0.5625
0.5625
0.5625
0.5625
0.5625
0.5625
0.5625
0.5625
0.5625
0.5625
0.5625
0.5625
0.5625
0.5625
0.5625
0.5625
0.5625
0.548808
0.545211
0.547422
0.553718
0.559495
0.561883
0.56241
0.56249
0.562499
0.5625
0.196959
0.200736
0.205592
0.21172
0.219483
0.229513
0.24297
0.262261
0.293776
0.36828
0.550864
0.56219
0.562493
0.5625
0.5625
0.5625
0.5625
0.5625
0.5625
0.5625
0.5625
0.5625
0.5625
0.5625
0.5625
0.5625
0.5625
0.5625
0.5625
0.5625
0.555493
0.553697
0.555285
0.558731
0.561321
0.562262
0.562465
0.562496
0.5625
0.5625
0.204032
0.207817
0.212613
0.218641
0.226303
0.236301
0.24993
0.269897
0.303603
0.386365
0.552575
0.562238
0.562494
0.5625
0.5625
0.5625
0.5625
0.5625
0.5625
0.5625
0.5625
0.5625
0.5625
0.5625
0.5625
0.5625
0.5625
0.5625
0.5625
0.5625
0.559421
0.558737
0.559591
0.561086
0.562073
0.562412
0.562487
0.562498
0.5625
0.5625
0.211275
0.215046
0.219742
0.225606
0.233074
0.242904
0.256514
0.276914
0.312565
0.402236
0.553726
0.562265
0.562495
0.5625
0.5625
0.5625
0.5625
0.5625
0.5625
0.5625
0.5625
0.5625
0.5625
0.5625
0.5625
0.5625
0.5625
0.5625
0.5625
0.5625
0.561324
0.561124
0.561482
0.562021
0.562354
0.562469
0.562495
0.562499
0.5625
0.5625
0.218798
0.222531
0.227081
0.232704
0.239856
0.249334
0.26264
0.283043
0.319959
0.41385
0.554193
0.56227
0.562495
0.5625
0.5625
0.5625
0.5625
0.5625
0.5625
0.5625
0.5625
0.5625
0.5625
0.5625
0.5625
0.5625
0.5625
0.5625
0.5625
0.5625
0.562102
0.562057
0.56218
0.562349
0.562452
0.562489
0.562498
0.5625
0.5625
0.5625
0.226752
0.230421
0.234774
0.240071
0.246767
0.25566
0.268277
0.288015
0.324852
0.418849
0.553651
0.562238
0.562494
0.5625
0.5625
0.5625
0.5625
0.5625
0.5625
0.5625
0.5625
0.5625
0.5625
0.5625
0.5625
0.5625
0.5625
0.5625
0.5625
0.5625
0.56238
0.562371
0.562407
0.562455
0.562485
0.562496
0.562499
0.5625
0.5625
0.5625
0.23535
0.238928
0.243035
0.24792
0.254012
0.262066
0.273535
0.291713
0.326326
0.414384
0.551077
0.56213
0.562492
0.5625
0.5625
0.5625
0.5625
0.5625
0.5625
0.5625
0.5625
0.5625
0.5625
0.5625
0.5625
0.5625
0.5625
0.5625
0.5625
0.5625
0.562468
0.562466
0.562475
0.562487
0.562495
0.562499
0.5625
0.5625
0.5625
0.5625
0.244898
0.248365
0.252186
0.256588
0.261949
0.26893
0.278806
0.29444
0.324166
0.397905
0.542724
0.56183
0.562486
0.5625
0.5625
0.5625
0.5625
0.5625
0.5625
0.5625
0.5625
0.5625
0.5625
0.5625
0.5625
0.5625
0.5625
0.5625
0.5625
0.5625
0.562493
0.562492
0.562494
0.562496
0.562498
0.562499
0.5625
0.5625
0.5625
0.5625
0.255865
0.259213
0.262731
0.266611
0.271168
0.27694
0.284928
0.297296
0.319919
0.37114
0.381262
0.393171
0.40649
0.420999
0.436459
0.452562
0.4689
0.484989
0.500373
0.514727
0.527832
0.539383
0.548808
0.555493
0.559421
0.561324
0.562102
0.56238
0.562468
0.562493
0.562498
0.562498
0.562498
0.562499
0.562499
0.5625
0.5625
0.5625
0.5625
0.5625
0.269002
0.272252
0.275487
0.278864
0.282636
0.287224
0.293378
0.302608
0.31847
0.348457
0.363681
0.377439
0.391684
0.406694
0.422533
0.439067
0.455998
0.472919
0.489419
0.505198
0.520056
0.533653
0.545211
0.553697
0.558737
0.561124
0.562057
0.562371
0.562466
0.562492
0.562498
0.562499
0.5625
0.5625
0.5625
0.5625
0.5625
0.5625
0.5625
0.5625
0.285595
0.288824
0.291856
0.29482
0.297925
0.301506
0.306139
0.312873
0.323764
0.341642
0.357032
0.372
0.387552
0.40377
0.420623
0.438024
0.455686
0.473222
0.490282
0.506634
0.522052
0.535996
0.547422
0.555285
0.559591
0.561482
0.56218
0.562407
0.562475
0.562494
0.562498
0.5625
0.5625
0.5625
0.5625
0.5625
0.5625
0.5625
0.5625
0.5625
0.307925
0.311299
0.314294
0.317027
0.319686
0.322574
0.326176
0.331298
0.33926
0.351458
0.365362
0.380534
0.396752
0.413698
0.431328
0.449406
0.467544
0.485324
0.502405
0.518475
0.53301
0.545088
0.553718
0.558731
0.561086
0.562021
0.562349
0.562455
0.562487
0.562496
0.562499
0.5625
0.5625
0.5625
0.5625
0.5625
0.5625
0.5625
0.5625
0.5625
0.339851
0.343643
0.346858
0.349625
0.352149
0.354745
0.357892
0.362305
0.368991
0.378896
0.391489
0.406026
0.422081
0.43929
0.457223
0.475333
0.493033
0.509787
0.525086
0.538298
0.548643
0.555605
0.559494
0.561321
0.562073
0.562354
0.562452
0.562485
0.562495
0.562498
0.562499
0.5625
0.5625
0.5625
0.5625
0.5625
0.5625
0.5625
0.5625
0.5625
0.386368
0.390748
0.394315
0.39726
0.399839
0.402409
0.405463
0.409664
0.415821
0.424637
0.436148
0.449927
0.465349
0.481664
0.498028
0.513612
0.527685
0.539622
0.548897
0.555267
0.559042
0.560986
0.561883
0.562262
0.562412
0.562469
0.562489
0.562496
0.562499
0.562499
0.5625
0.5625
0.5625
0.5625
0.5625
0.5625
0.5625
0.5625
0.5625
0.5625
0.451145
0.455539
0.458969
0.461707
0.46406
0.466407
0.469223
0.473073
0.478547
0.486064
0.495573
0.506521
0.518052
0.529229
0.539219
0.547415
0.553513
0.557579
0.560007
0.561321
0.561975
0.562278
0.56241
0.562465
0.562487
0.562495
0.562498
0.562499
0.5625
0.5625
0.5625
0.5625
0.5625
0.5625
0.5625
0.5625
0.5625
0.5625
0.5625
0.5625
0.519213
0.521814
0.523783
0.525326
0.526657
0.52802
0.529686
0.531935
0.53498
0.538861
0.543344
0.547972
0.552238
0.555765
0.558391
0.560164
0.561256
0.561876
0.562204
0.562366
0.562442
0.562476
0.56249
0.562496
0.562498
0.562499
0.5625
0.5625
0.5625
0.5625
0.5625
0.5625
0.5625
0.5625
0.5625
0.5625
0.5625
0.5625
0.5625
0.5625
0.554451
0.555068
0.555535
0.555904
0.556229
0.556571
0.556989
0.557532
0.558222
0.559029
0.559874
0.560657
0.561301
0.561774
0.56209
0.562282
0.562391
0.562448
0.562476
0.56249
0.562496
0.562498
0.562499
0.5625
0.5625
0.5625
0.5625
0.5625
0.5625
0.5625
0.5625
0.5625
0.5625
0.5625
0.5625
0.5625
0.5625
0.5625
0.5625
0.5625
0.56188
0.561933
0.561974
0.562008
0.562038
0.56207
0.562109
0.562158
0.562216
0.562279
0.562341
0.562394
0.562435
0.562463
0.56248
0.56249
0.562495
0.562498
0.562499
0.5625
0.5625
0.5625
0.5625
0.5625
0.5625
0.5625
0.5625
0.5625
0.5625
0.5625
0.5625
0.5625
0.5625
0.5625
0.5625
0.5625
0.5625
0.5625
0.5625
0.5625
0.00480636
0.00767532
0.0121521
0.0179984
0.024915
0.0326137
0.0408471
0.0494104
0.0581424
0.0669247
0.0756572
0.0842455
0.0926189
0.100734
0.108571
0.116137
0.123445
0.130507
0.137347
0.143992
0.150474
0.156829
0.163093
0.169309
0.175528
0.181808
0.188223
0.194864
0.201849
0.209333
0.217524
0.226695
0.23722
0.249673
0.265386
0.288815
0.331298
0.41179
0.513497
0.557569
0.00767444
0.0108402
0.0155031
0.0214172
0.028324
0.0359747
0.0441485
0.052659
0.0613562
0.0701257
0.0788565
0.0874496
0.0958321
0.103959
0.111813
0.1194
0.126728
0.133809
0.140666
0.147325
0.153815
0.160168
0.166418
0.172604
0.178771
0.184974
0.191282
0.197783
0.204598
0.211885
0.21986
0.228808
0.23911
0.251347
0.266859
0.290226
0.333047
0.414332
0.5153
0.557838
0.0121518
0.0155031
0.0202581
0.0261715
0.0330131
0.0405692
0.0486469
0.0570796
0.0657315
0.0744819
0.0832066
0.0918006
0.100187
0.108322
0.116187
0.123788
0.131125
0.138212
0.145068
0.151718
0.158186
0.1645
0.170688
0.176783
0.182824
0.188859
0.194953
0.201194
0.207705
0.214657
0.222281
0.230883
0.240862
0.252799
0.268035
0.291256
0.334284
0.416192
0.516644
0.558042
0.0179986
0.0214171
0.0261714
0.0320218
0.0387605
0.0462009
0.0541756
0.0625391
0.0711642
0.0799119
0.0886469
0.0972561
0.105659
0.11381
0.121698
0.129314
0.13666
0.143749
0.150599
0.157229
0.16366
0.169912
0.176005
0.181965
0.187819
0.193607
0.199386
0.205244
0.211309
0.217769
0.224886
0.233
0.242536
0.254081
0.268973
0.291978
0.335127
0.417561
0.517686
0.558207
0.0249151
0.0283237
0.0330129
0.0387604
0.0453794
0.0527072
0.0606017
0.0689375
0.0775765
0.0863647
0.0951533
0.103817
0.11227
0.120472
0.128403
0.13605
0.14342
0.150524
0.157378
0.163997
0.170394
0.176582
0.18257
0.18837
0.193997
0.199473
0.204845
0.210192
0.21565
0.221431
0.227842
0.235287
0.244234
0.255282
0.269756
0.292498
0.335734
0.418702
0.518628
0.558362
0.0326137
0.0359743
0.040569
0.0462008
0.0527072
0.0599523
0.0678209
0.0761908
0.0849135
0.093824
0.102752
0.111548
0.12012
0.128428
0.136441
0.144156
0.151584
0.158737
0.165628
0.172267
0.178661
0.184811
0.190713
0.196362
0.201749
0.206875
0.211759
0.216464
0.221124
0.225983
0.231421
0.237948
0.246112
0.256529
0.270506
0.29296
0.336328
0.419966
0.519721
0.558543
0.0408469
0.0441482
0.0486467
0.0541756
0.0606017
0.0678209
0.0757327
0.0842198
0.0931411
0.102322
0.111552
0.120624
0.129434
0.137924
0.146087
0.153934
0.161482
0.168747
0.17574
0.182468
0.188927
0.195108
0.200989
0.206541
0.211725
0.216504
0.220853
0.224789
0.228422
0.232021
0.236079
0.24132
0.248417
0.258014
0.271386
0.293558
0.337197
0.421801
0.521256
0.558788
0.0494102
0.0526588
0.0570795
0.0625391
0.0689375
0.0761908
0.0842198
0.0929404
0.102248
0.111978
0.121848
0.131459
0.140668
0.149467
0.15789
0.165974
0.17375
0.181242
0.188461
0.195408
0.202071
0.208425
0.214428
0.220022
0.225128
0.22965
0.233486
0.23656
0.23889
0.240726
0.242705
0.246015
0.251564
0.260028
0.272628
0.294549
0.33871
0.424751
0.523541
0.559126
0.0581422
0.0613561
0.0657315
0.0711642
0.0775765
0.0849135
0.0931411
0.102248
0.112241
0.123095
0.134462
0.145055
0.154927
0.16424
0.173114
0.181634
0.189858
0.197821
0.205539
0.213007
0.220203
0.22708
0.233568
0.239569
0.244952
0.249544
0.253117
0.255391
0.256109
0.255278
0.253633
0.253485
0.256388
0.26306
0.27456
0.296272
0.341326
0.429447
0.526829
0.559569
0.0669244
0.0701255
0.0744819
0.079912
0.0863647
0.0938239
0.102322
0.111978
0.123095
0.136363
0.152695
0.165104
0.176139
0.186435
0.196277
0.205834
0.21521
0.224478
0.233676
0.242809
0.251846
0.260707
0.269281
0.277439
0.285027
0.291806
0.29726
0.300362
0.299509
0.29295
0.28065
0.269353
0.265232
0.268091
0.27768
0.299153
0.345582
0.436556
0.531226
0.5601
0.075657
0.0788564
0.0832066
0.0886468
0.0951533
0.102752
0.111552
0.121848
0.134462
0.152695
0.499041
0.512533
0.507489
0.505232
0.504781
0.505474
0.506953
0.50899
0.511419
0.514104
0.516928
0.519774
0.522522
0.525027
0.527096
0.528434
0.528513
0.526212
0.518517
0.495365
0.287446
0.277205
0.272396
0.273477
0.281765
0.303409
0.351983
0.446636
0.53657
0.560667
0.0842452
0.0874494
0.0918005
0.097256
0.103817
0.111548
0.120623
0.131459
0.145055
0.165104
0.512533
0.558893
0.56005
0.559752
0.5596
0.559578
0.559649
0.559784
0.55996
0.560159
0.560366
0.560568
0.560755
0.560914
0.561034
0.561098
0.561073
0.560886
0.560336
0.558863
0.294749
0.283783
0.278684
0.278839
0.286717
0.309145
0.360996
0.459957
0.542397
0.561203
0.0926186
0.0958319
0.100187
0.105659
0.11227
0.12012
0.129434
0.140668
0.154927
0.176139
0.507489
0.56005
0.562378
0.562423
0.562416
0.562413
0.562414
0.562418
0.562424
0.562431
0.562438
0.562445
0.562451
0.562457
0.56246
0.562462
0.562462
0.562456
0.562441
0.562408
0.302331
0.290106
0.28462
0.284356
0.292517
0.316512
0.373173
0.4763
0.548052
0.561652
0.100733
0.103959
0.108321
0.11381
0.120471
0.128428
0.137924
0.149467
0.164239
0.186434
0.505232
0.559752
0.562423
0.562497
0.562498
0.562498
0.562498
0.562498
0.562498
0.562498
0.562499
0.562499
0.562499
0.562499
0.562499
0.562499
0.562499
0.562499
0.562499
0.562498
0.310204
0.296582
0.29067
0.290379
0.299287
0.325829
0.389237
0.494703
0.552921
0.561986
0.108571
0.111813
0.116186
0.121698
0.128403
0.136441
0.146086
0.157889
0.173113
0.196277
0.504781
0.5596
0.562416
0.562498
0.5625
0.5625
0.5625
0.5625
0.5625
0.5625
0.5625
0.5625
0.5625
0.5625
0.5625
0.5625
0.5625
0.5625
0.5625
0.5625
0.318398
0.303359
0.297107
0.297064
0.307287
0.337674
0.40998
0.513375
0.556642
0.56221
0.116136
0.1194
0.123788
0.129314
0.13605
0.144156
0.153933
0.165973
0.181634
0.205833
0.505474
0.559578
0.562413
0.562498
0.5625
0.5625
0.5625
0.5625
0.5625
0.5625
0.5625
0.5625
0.5625
0.5625
0.5625
0.5625
0.5625
0.5625
0.5625
0.5625
0.327007
0.310582
0.304117
0.304667
0.316976
0.35298
0.435765
0.530098
0.559181
0.562346
0.123445
0.126728
0.131125
0.136659
0.143419
0.151583
0.161481
0.17375
0.189858
0.21521
0.506953
0.559649
0.562414
0.562498
0.5625
0.5625
0.5625
0.5625
0.5625
0.5625
0.5625
0.5625
0.5625
0.5625
0.5625
0.5625
0.5625
0.5625
0.5625
0.5625
0.336221
0.318474
0.31199
0.31362
0.329101
0.373073
0.465527
0.543133
0.560746
0.562423
0.130507
0.133809
0.138211
0.143748
0.150524
0.158736
0.168746
0.181241
0.197821
0.224478
0.50899
0.559784
0.562418
0.562498
0.5625
0.5625
0.5625
0.5625
0.5625
0.5625
0.5625
0.5625
0.5625
0.5625
0.5625
0.5625
0.5625
0.5625
0.5625
0.5625
0.346401
0.327414
0.321204
0.324616
0.344808
0.399439
0.495912
0.551957
0.561628
0.562464
0.137346
0.140666
0.145068
0.150598
0.157378
0.165627
0.17574
0.18846
0.205538
0.233675
0.511419
0.55996
0.562424
0.562498
0.5625
0.5625
0.5625
0.5625
0.5625
0.5625
0.5625
0.5625
0.5625
0.5625
0.5625
0.5625
0.5625
0.5625
0.5625
0.5625
0.358176
0.338033
0.332525
0.338731
0.365726
0.432703
0.522179
0.55721
0.562089
0.562483
0.143992
0.147325
0.151717
0.157229
0.163996
0.172267
0.182467
0.195407
0.213007
0.242809
0.514104
0.560159
0.562431
0.562498
0.5625
0.5625
0.5625
0.5625
0.5625
0.5625
0.5625
0.5625
0.5625
0.5625
0.5625
0.5625
0.5625
0.5625
0.5625
0.5625
0.372584
0.35135
0.347152
0.357551
0.393803
0.47053
0.540996
0.56002
0.562315
0.562493
0.150474
0.153815
0.158186
0.163659
0.170394
0.17866
0.188927
0.202071
0.220202
0.251845
0.516928
0.560366
0.562438
0.562499
0.5625
0.5625
0.5625
0.5625
0.5625
0.5625
0.5625
0.5625
0.5625
0.5625
0.5625
0.5625
0.5625
0.5625
0.5625
0.5625
0.391169
0.36892
0.366853
0.383192
0.430146
0.506477
0.552234
0.5614
0.56242
0.562497
0.156828
0.160167
0.164499
0.169911
0.176581
0.18481
0.195107
0.208425
0.22708
0.260706
0.519774
0.560568
0.562445
0.562499
0.5625
0.5625
0.5625
0.5625
0.5625
0.5625
0.5625
0.5625
0.5625
0.5625
0.5625
0.5625
0.5625
0.5625
0.5625
0.5625
0.415808
0.392868
0.39392
0.417622
0.47207
0.53355
0.558003
0.562034
0.562467
0.562499
0.163092
0.166417
0.170687
0.176005
0.18257
0.190713
0.200988
0.214428
0.233568
0.269281
0.522522
0.560755
0.562451
0.562499
0.5625
0.5625
0.5625
0.5625
0.5625
0.5625
0.5625
0.5625
0.5625
0.5625
0.5625
0.5625
0.5625
0.5625
0.5625
0.5625
0.447623
0.425256
0.430155
0.459989
0.51112
0.549601
0.560652
0.562309
0.562486
0.562499
0.169309
0.172603
0.176783
0.181964
0.18837
0.196361
0.20654
0.220021
0.239569
0.277438
0.525027
0.560914
0.562457
0.562499
0.5625
0.5625
0.5625
0.5625
0.5625
0.5625
0.5625
0.5625
0.5625
0.5625
0.5625
0.5625
0.5625
0.5625
0.5625
0.5625
0.484413
0.465552
0.473499
0.502769
0.538588
0.557358
0.561774
0.562424
0.562494
0.5625
0.175527
0.17877
0.182823
0.187818
0.193996
0.201749
0.211725
0.225127
0.244952
0.285027
0.527096
0.561034
0.56246
0.562499
0.5625
0.5625
0.5625
0.5625
0.5625
0.5625
0.5625
0.5625
0.5625
0.5625
0.5625
0.5625
0.5625
0.5625
0.5625
0.5625
0.518887
0.506705
0.514544
0.534852
0.553138
0.560593
0.562223
0.56247
0.562498
0.5625
0.181808
0.184973
0.188858
0.193606
0.199473
0.206874
0.216504
0.229649
0.249544
0.291806
0.528433
0.561098
0.562462
0.562499
0.5625
0.5625
0.5625
0.5625
0.5625
0.5625
0.5625
0.5625
0.5625
0.5625
0.5625
0.5625
0.5625
0.5625
0.5625
0.5625
0.543062
0.537544
0.542421
0.552151
0.55924
0.561822
0.562396
0.562488
0.562499
0.5625
0.188222
0.191281
0.194952
0.199386
0.204844
0.211759
0.220852
0.233486
0.253117
0.29726
0.528513
0.561073
0.562462
0.562499
0.5625
0.5625
0.5625
0.5625
0.5625
0.5625
0.5625
0.5625
0.5625
0.5625
0.5625
0.5625
0.5625
0.5625
0.5625
0.5625
0.555453
0.553694
0.555723
0.559155
0.561434
0.562263
0.562461
0.562495
0.5625
0.5625
0.194863
0.197783
0.201193
0.205243
0.210191
0.216464
0.224788
0.236559
0.255391
0.300362
0.526212
0.560886
0.562456
0.562499
0.5625
0.5625
0.5625
0.5625
0.5625
0.5625
0.5625
0.5625
0.5625
0.5625
0.5625
0.5625
0.5625
0.5625
0.5625
0.5625
0.560321
0.559884
0.56051
0.561501
0.562161
0.562417
0.562485
0.562498
0.5625
0.5625
0.201848
0.204597
0.207705
0.211308
0.215649
0.221124
0.228422
0.23889
0.256109
0.299508
0.518517
0.560336
0.562441
0.562499
0.5625
0.5625
0.5625
0.5625
0.5625
0.5625
0.5625
0.5625
0.5625
0.5625
0.5625
0.5625
0.5625
0.5625
0.5625
0.5625
0.561911
0.561812
0.561963
0.562213
0.562393
0.562471
0.562494
0.562499
0.5625
0.5625
0.209333
0.211885
0.214656
0.217769
0.22143
0.225982
0.232021
0.240725
0.255277
0.292949
0.495365
0.558863
0.562408
0.562498
0.5625
0.5625
0.5625
0.5625
0.5625
0.5625
0.5625
0.5625
0.5625
0.5625
0.5625
0.5625
0.5625
0.5625
0.5625
0.5625
0.562366
0.562338
0.562363
0.562419
0.562466
0.562489
0.562498
0.5625
0.5625
0.5625
0.217523
0.219859
0.22228
0.224885
0.227842
0.23142
0.236078
0.242705
0.253633
0.280649
0.287446
0.294748
0.302331
0.310203
0.318398
0.327007
0.336221
0.346401
0.358176
0.372584
0.391169
0.415808
0.447623
0.484413
0.518887
0.543062
0.555453
0.560321
0.561911
0.562366
0.562462
0.562465
0.562467
0.562478
0.562489
0.562496
0.562499
0.5625
0.5625
0.5625
0.226695
0.228807
0.230883
0.232999
0.235286
0.237948
0.241319
0.246015
0.253484
0.269352
0.277204
0.283783
0.290106
0.296582
0.303359
0.310581
0.318474
0.327414
0.338033
0.351349
0.36892
0.392868
0.425256
0.465552
0.506705
0.537544
0.553694
0.559884
0.561812
0.562338
0.562465
0.562488
0.562492
0.562494
0.562497
0.562499
0.5625
0.5625
0.5625
0.5625
0.237219
0.23911
0.240861
0.242535
0.244233
0.246111
0.248416
0.251563
0.256387
0.265232
0.272396
0.278683
0.284619
0.290669
0.297107
0.304117
0.31199
0.321203
0.332525
0.347152
0.366853
0.39392
0.430155
0.473498
0.514544
0.542421
0.555723
0.56051
0.561963
0.562363
0.562467
0.562492
0.562497
0.562498
0.562499
0.562499
0.5625
0.5625
0.5625
0.5625
0.249673
0.251347
0.252798
0.254081
0.255282
0.256529
0.258013
0.260027
0.26306
0.26809
0.273477
0.278839
0.284355
0.290379
0.297064
0.304666
0.313619
0.324616
0.338731
0.35755
0.383192
0.417622
0.459989
0.502769
0.534852
0.552151
0.559155
0.561501
0.562213
0.562419
0.562478
0.562494
0.562498
0.562499
0.5625
0.5625
0.5625
0.5625
0.5625
0.5625
0.265385
0.266858
0.268035
0.268972
0.269756
0.270505
0.271386
0.272627
0.274559
0.27768
0.281765
0.286717
0.292517
0.299286
0.307286
0.316975
0.3291
0.344807
0.365726
0.393803
0.430146
0.472069
0.51112
0.538588
0.553138
0.55924
0.561434
0.562161
0.562393
0.562466
0.562489
0.562497
0.562499
0.5625
0.5625
0.5625
0.5625
0.5625
0.5625
0.5625
0.288814
0.290225
0.291255
0.291978
0.292498
0.29296
0.293557
0.294548
0.296271
0.299152
0.303409
0.309145
0.316512
0.325829
0.337674
0.35298
0.373073
0.399439
0.432703
0.47053
0.506476
0.53355
0.549601
0.557358
0.560593
0.561822
0.562263
0.562417
0.562471
0.562489
0.562496
0.562499
0.562499
0.5625
0.5625
0.5625
0.5625
0.5625
0.5625
0.5625
0.331298
0.333046
0.334284
0.335126
0.335734
0.336328
0.337196
0.338709
0.341325
0.345581
0.351982
0.360995
0.373173
0.389237
0.409979
0.435765
0.465527
0.495911
0.522179
0.540996
0.552234
0.558003
0.560652
0.561774
0.562223
0.562396
0.562461
0.562485
0.562494
0.562498
0.562499
0.5625
0.5625
0.5625
0.5625
0.5625
0.5625
0.5625
0.5625
0.5625
0.411789
0.414332
0.416191
0.41756
0.418702
0.419966
0.4218
0.42475
0.429447
0.436556
0.446635
0.459957
0.476299
0.494703
0.513375
0.530098
0.543133
0.551957
0.55721
0.56002
0.5614
0.562034
0.562309
0.562424
0.56247
0.562488
0.562495
0.562498
0.562499
0.5625
0.5625
0.5625
0.5625
0.5625
0.5625
0.5625
0.5625
0.5625
0.5625
0.5625
0.513497
0.515299
0.516644
0.517686
0.518628
0.519721
0.521256
0.52354
0.526829
0.531226
0.53657
0.542397
0.548052
0.552921
0.556642
0.559181
0.560746
0.561628
0.562089
0.562315
0.56242
0.562467
0.562486
0.562494
0.562498
0.562499
0.5625
0.5625
0.5625
0.5625
0.5625
0.5625
0.5625
0.5625
0.5625
0.5625
0.5625
0.5625
0.5625
0.5625
0.557569
0.557838
0.558042
0.558207
0.558362
0.558543
0.558788
0.559126
0.559569
0.5601
0.560667
0.561203
0.561652
0.561986
0.56221
0.562346
0.562423
0.562464
0.562483
0.562493
0.562497
0.562499
0.562499
0.5625
0.5625
0.5625
0.5625
0.5625
0.5625
0.5625
0.5625
0.5625
0.5625
0.5625
0.5625
0.5625
0.5625
0.5625
0.5625
0.5625
0.000674775
0.00207067
0.00517694
0.00999361
0.0161747
0.0233487
0.0311918
0.03944
0.0478871
0.0563802
0.0648148
0.0731174
0.0812213
0.0890798
0.0966684
0.103981
0.111029
0.117831
0.124404
0.130773
0.136965
0.143013
0.148948
0.154808
0.160636
0.166483
0.172407
0.178485
0.184811
0.191508
0.198743
0.206749
0.215894
0.226852
0.241073
0.261905
0.297012
0.363781
0.474094
0.550429
0.00206961
0.00418418
0.00786663
0.0129956
0.0193095
0.0265179
0.034349
0.0425691
0.0509904
0.0594701
0.0679084
0.0762225
0.08434
0.0922122
0.0998133
0.107138
0.114197
0.121005
0.12758
0.133944
0.140123
0.146146
0.152041
0.157844
0.163592
0.169333
0.175124
0.181037
0.187171
0.193652
0.200653
0.208418
0.217325
0.22806
0.242094
0.262828
0.29804
0.365331
0.475864
0.55087
0.00517638
0.00786672
0.0119653
0.0173134
0.0237012
0.0308971
0.0386764
0.0468385
0.0552146
0.0636731
0.0721118
0.0804324
0.0885567
0.0964331
0.104035
0.111359
0.118413
0.125208
0.13176
0.13809
0.14422
0.150174
0.155978
0.161661
0.167255
0.172802
0.178359
0.183998
0.18982
0.195963
0.202616
0.210039
0.218625
0.229072
0.242866
0.263449
0.298691
0.36636
0.477103
0.551189
0.00999388
0.0129958
0.0173133
0.0227639
0.029159
0.0363051
0.0440146
0.0521147
0.0604556
0.0689139
0.077369
0.0857083
0.0938468
0.101731
0.109334
0.116656
0.123698
0.130469
0.136985
0.143262
0.149321
0.155177
0.160851
0.166364
0.171741
0.177019
0.182246
0.187497
0.192881
0.198553
0.204724
0.211686
0.219854
0.229939
0.243439
0.263827
0.29905
0.367017
0.477999
0.551436
0.0161751
0.0193095
0.023701
0.0291589
0.0355091
0.0425856
0.0502293
0.0582924
0.0666429
0.075147
0.0836592
0.0920514
0.10023
0.108141
0.115763
0.12309
0.130124
0.136874
0.143354
0.149577
0.155557
0.161304
0.166829
0.172142
0.177259
0.182203
0.187013
0.191762
0.196566
0.201602
0.207124
0.213474
0.221103
0.23074
0.24389
0.264052
0.299242
0.367508
0.478798
0.551673
0.023349
0.0265176
0.0308967
0.0363048
0.0425855
0.0495965
0.057206
0.0652931
0.0737306
0.082359