/*--------------------------------*- C++ -*----------------------------------*\
| =========                 |                                                 |
| \\      /  F ield         | OpenFOAM: The Open Source CFD Toolbox           |
|  \\    /   O peration     | Version:  2.1.0                                 |
|   \\  /    A nd           | Web:      www.OpenFOAM.org                      |
|    \\/     M anipulation  |                                                 |
\*---------------------------------------------------------------------------*/
FoamFile
{
    version     2.0;
    format      ascii;
    class       volScalarField;
    location    "24090";
    object      kr_w;
}
// * * * * * * * * * * * * * * * * * * * * * * * * * * * * * * * * * * * * * //

dimensions      [0 0 0 0 0 0 0];

internalField   nonuniform List<scalar> 
8000
(
0.401731
0.37993
0.354266
0.328134
0.303182
0.280078
0.259001
0.239888
0.22259
0.206966
0.192881
0.180197
0.168771
0.158458
0.149125
0.140655
0.13294
0.125875
0.119364
0.113325
0.107687
0.102384
0.0973565
0.0925491
0.0879068
0.0833734
0.0788883
0.0743821
0.0697715
0.0649514
0.059784
0.0540766
0.0475477
0.039821
0.030568
0.020112
0.00995361
0.00304417
0.000504447
3.79811e-05
0.379932
0.360968
0.33839
0.315013
0.292318
0.270985
0.251265
0.233177
0.216662
0.201648
0.188047
0.175751
0.164639
0.154587
0.145473
0.137192
0.12964
0.122716
0.116331
0.110407
0.104874
0.0996727
0.0947463
0.0900428
0.0855107
0.0810971
0.0767435
0.0723821
0.0679289
0.0632763
0.0582813
0.0527402
0.0463586
0.0387492
0.0295919
0.0192812
0.00940843
0.00283637
0.000464821
3.47011e-05
0.354267
0.33839
0.319196
0.298901
0.278784
0.259514
0.241394
0.224535
0.208973
0.194712
0.181712
0.169905
0.159197
0.149484
0.140663
0.132641
0.125315
0.118591
0.112387
0.106631
0.101259
0.0962151
0.0914486
0.0869122
0.0825593
0.0783408
0.0742009
0.0700721
0.065868
0.0614748
0.0567383
0.0514387
0.0452651
0.0378174
0.0287831
0.0186221
0.00899361
0.00268132
0.000434974
3.21772e-05
0.328135
0.315013
0.298901
0.281493
0.263861
0.246623
0.230111
0.214515
0.199956
0.186496
0.174145
0.162872
0.152615
0.143288
0.134812
0.127094
0.120036
0.113553
0.107569
0.102017
0.0968418
0.0919927
0.0874261
0.0831017
0.0789795
0.0750168
0.0711623
0.0673497
0.0634892
0.0594567
0.0550781
0.0501095
0.044217
0.0369831
0.0281004
0.0180894
0.0086691
0.00256126
0.000411477
3.01341e-05
0.303182
0.292319
0.278784
0.263861
0.248419
0.233007
0.217976
0.203574
0.189972
0.177281
0.16556
0.154816
0.145016
0.136099
0.127993
0.120601
0.113834
0.107611
0.101863
0.0965323
0.0915682
0.0869294
0.0825804
0.0784905
0.07463
0.0709666
0.0674582
0.0640437
0.0606304
0.0570783
0.0531826
0.0486598
0.0431411
0.0361853
0.0274883
0.0176311
0.00839492
0.00245863
0.000390763
2.82758e-05
0.280079
0.270986
0.259514
0.246623
0.233007
0.219153
0.205419
0.192069
0.179305
0.16728
0.156103
0.145834
0.136467
0.127959
0.12022
0.113155
0.106677
0.100712
0.0951968
0.0900787
0.0853161
0.0808762
0.0767346
0.0728729
0.0692773
0.0659327
0.062815
0.059877
0.0570273
0.0541064
0.0508632
0.0469449
0.0419268
0.0353348
0.0268691
0.0171821
0.00812561
0.00235448
0.000369064
2.62973e-05
0.259001
0.251265
0.241395
0.230111
0.217976
0.205419
0.192768
0.180281
0.16817
0.156624
0.145829
0.135928
0.126947
0.118811
0.111412
0.10465
0.0984392
0.0927055
0.0873907
0.0824489
0.0778463
0.0735601
0.0695784
0.0658999
0.0625328
0.0594899
0.0567778
0.0543787
0.0522205
0.0501323
0.0477964
0.0447246
0.040398
0.0342961
0.0261325
0.0166583
0.00780799
0.0022283
0.00034261
2.39169e-05
0.239888
0.233177
0.224535
0.214516
0.203574
0.192069
0.180281
0.168432
0.156714
0.145344
0.13463
0.124935
0.116243
0.108413
0.101303
0.0947968
0.0887986
0.0832357
0.0780528
0.0732098
0.068681
0.0644551
0.0605362
0.0569424
0.0537055
0.0508735
0.0485058
0.0466542
0.0453164
0.0443505
0.0433574
0.0415591
0.0382572
0.0328606
0.0251246
0.0159545
0.00738309
0.00206024
0.000308307
2.09479e-05
0.22259
0.216662
0.208974
0.199957
0.189972
0.179306
0.16817
0.156714
0.145047
0.13332
0.122002
0.112224
0.103681
0.0960653
0.0891598
0.0828144
0.0769227
0.0714087
0.0662201
0.0613253
0.0567097
0.05237
0.0483175
0.0445839
0.0412292
0.0383532
0.0361042
0.034675
0.0342533
0.0348726
0.0361161
0.0365485
0.0349889
0.0307224
0.023652
0.0149575
0.00679708
0.0018365
0.000264944
1.73938e-05
0.206966
0.201648
0.194712
0.186496
0.177281
0.16728
0.156625
0.145344
0.13332
0.120172
0.105435
0.0951741
0.0866247
0.0790725
0.0721877
0.0657801
0.0597306
0.053959
0.0484049
0.0430303
0.037826
0.0328228
0.0281029
0.0238057
0.0201127
0.0172122
0.0152724
0.0144817
0.0151866
0.017974
0.0231924
0.028387
0.0301039
0.0276548
0.0215852
0.0135982
0.00602595
0.00155762
0.000214419
1.35061e-05
0.192882
0.188047
0.181713
0.174145
0.16556
0.156104
0.145829
0.13463
0.122002
0.105435
0.00340783
0.00240709
0.00258675
0.00259889
0.00250443
0.00234569
0.00214785
0.0019282
0.00169973
0.00147286
0.00125629
0.00105751
0.000882885
0.000737592
0.000625702
0.000551126
0.000521037
0.000555939
0.000723626
0.00128681
0.021111
0.0248163
0.0263325
0.0244435
0.0191432
0.0119373
0.0051035
0.00124396
0.000161783
9.72007e-06
0.180198
0.175751
0.169906
0.162873
0.154817
0.145834
0.135928
0.124936
0.112224
0.0951742
0.00240708
0.000119413
7.59491e-05
8.04582e-05
7.96875e-05
7.49075e-05
6.77426e-05
5.93944e-05
5.07471e-05
4.24374e-05
3.49e-05
2.84024e-05
2.30776e-05
1.89615e-05
1.60441e-05
1.43497e-05
1.4088e-05
1.60278e-05
2.26412e-05
4.10536e-05
0.0188319
0.0218809
0.0230101
0.0212561
0.0165629
0.0101075
0.00411021
0.000929489
0.000113261
6.46361e-06
0.168771
0.16464
0.159198
0.152615
0.145016
0.136467
0.126948
0.116243
0.103681
0.0866249
0.00258675
7.59489e-05
3.09216e-06
1.81193e-06
1.83997e-06
1.75872e-06
1.59362e-06
1.3858e-06
1.16664e-06
9.57844e-07
7.72735e-07
6.17936e-07
4.95264e-07
4.03677e-07
3.4125e-07
3.07423e-07
3.06456e-07
3.55149e-07
5.02468e-07
8.42565e-07
0.0164845
0.0191068
0.0198852
0.0181805
0.0139842
0.00824649
0.00313804
0.000647645
7.35519e-05
3.97894e-06
0.158458
0.154588
0.149485
0.143289
0.136099
0.12796
0.118811
0.108413
0.0960655
0.0790726
0.00259888
8.0458e-05
1.81192e-06
6.36728e-08
3.46483e-08
3.34181e-08
3.05608e-08
2.65794e-08
2.22431e-08
1.80891e-08
1.44333e-08
1.14172e-08
9.06394e-09
7.33277e-09
6.1665e-09
5.53545e-09
5.4947e-09
6.2961e-09
8.61379e-09
1.32634e-08
0.0141496
0.01645
0.0169474
0.0152967
0.0115054
0.00647274
0.00226278
0.000420337
4.44352e-05
2.27914e-06
0.149126
0.145474
0.140663
0.134812
0.127994
0.12022
0.111412
0.101304
0.08916
0.0721878
0.00250443
7.96874e-05
1.83997e-06
3.46482e-08
1.07453e-09
5.45654e-10
4.98833e-10
4.3584e-10
3.64384e-10
2.94941e-10
2.33705e-10
1.83367e-10
1.44301e-10
1.1566e-10
9.62668e-11
8.53326e-11
8.32279e-11
9.27822e-11
1.21282e-10
1.73428e-10
0.0118943
0.0139154
0.0142073
0.0126175
0.00920356
0.00487455
0.00153221
0.000254312
2.50926e-05
1.22296e-06
0.140655
0.137193
0.132641
0.127094
0.120602
0.113155
0.104651
0.094797
0.0828146
0.0657802
0.00234569
7.49073e-05
1.75872e-06
3.3418e-08
5.45651e-10
1.51883e-11
7.2323e-12
6.27957e-12
5.25669e-12
4.24464e-12
3.3456e-12
2.60559e-12
2.03129e-12
1.60926e-12
1.32006e-12
1.14836e-12
1.09179e-12
1.17554e-12
1.46517e-12
1.96917e-12
0.00977607
0.0115358
0.0116785
0.0101737
0.00713854
0.00350377
0.000966856
0.000143802
1.33206e-05
6.19163e-07
0.132941
0.129641
0.125315
0.120037
0.113834
0.106678
0.0984395
0.0887988
0.0769229
0.0597308
0.00214785
6.77425e-05
1.59362e-06
3.05607e-08
4.98831e-10
7.23229e-12
1.83858e-13
8.26908e-14
6.83962e-14
5.52288e-14
4.32807e-14
3.33773e-14
2.57665e-14
2.01242e-14
1.61806e-14
1.37802e-14
1.26689e-14
1.32341e-14
1.57552e-14
2.00924e-14
0.00784415
0.00935235
0.00939046
0.00799664
0.00534433
0.00237994
0.000564916
7.63029e-05
6.68726e-06
2.97811e-07
0.125875
0.122717
0.118592
0.113554
0.107611
0.100713
0.0927058
0.083236
0.0714089
0.0539591
0.0019282
5.93943e-05
1.3858e-06
2.65794e-08
4.35839e-10
6.27957e-12
8.26908e-14
1.14306e-15
1.20656e-16
1.20656e-16
1.20656e-16
1.20656e-16
0
0
0
0
0
0
0
0
0.00613393
0.00739981
0.00736683
0.00610022
0.0038274
0.00150371
0.000305368
3.81847e-05
3.19323e-06
1.36943e-07
0.119364
0.116332
0.112388
0.107569
0.101864
0.0951971
0.087391
0.078053
0.0662203
0.048405
0.00169973
5.0747e-05
1.16664e-06
2.2243e-08
3.64383e-10
5.25667e-12
6.83962e-14
1.20656e-16
0
0
0
0
0
0
0
0
0
0
0
0
0.0046592
0.00569395
0.00560974
0.00447532
0.00257982
0.000867685
0.000153503
1.81197e-05
1.45821e-06
6.0541e-08
0.113326
0.110407
0.106632
0.102018
0.0965327
0.090079
0.0824492
0.07321
0.0613254
0.0430304
0.00147286
4.24373e-05
9.57842e-07
1.8089e-08
2.9494e-10
4.24463e-12
5.52288e-14
1.20656e-16
0
0
0
0
0
0
0
0
0
0
0
0
0.00341095
0.00422652
0.00410035
0.00310378
0.00159765
0.000452089
7.22842e-05
8.19529e-06
6.40076e-07
2.58684e-08
0.107687
0.104875
0.101259
0.0968421
0.0915686
0.0853164
0.0778466
0.0686812
0.0567099
0.0378261
0.00125629
3.48999e-05
7.72734e-07
1.44333e-08
2.33704e-10
3.3456e-12
4.32807e-14
1.20656e-16
0
0
0
0
0
0
0
0
0
0
0
0
0.0023688
0.00297639
0.00281754
0.00198078
0.000884614
0.000213617
3.21217e-05
3.55116e-06
2.71486e-07
1.07423e-08
0.102384
0.0996731
0.0962155
0.091993
0.0869297
0.0808765
0.0735603
0.0644553
0.0523702
0.0328229
0.00105751
2.84024e-05
6.17935e-07
1.14172e-08
1.83367e-10
2.60559e-12
3.33773e-14
1.20656e-16
0
0
0
0
0
0
0
0
0
0
0
0
0.00152061
0.00193348
0.00176281
0.00112436
0.000430504
9.29229e-05
1.35701e-05
1.48283e-06
1.11946e-07
4.36369e-09
0.0973568
0.0947467
0.091449
0.0874265
0.0825807
0.0767348
0.0695786
0.0605364
0.0483177
0.028103
0.000882885
2.30776e-05
4.95264e-07
9.06393e-09
1.44301e-10
2.03132e-12
2.57665e-14
0
0
0
0
0
0
0
0
0
0
0
0
0
0.000873642
0.00111601
0.00096634
0.000551645
0.000185379
3.77689e-05
5.49082e-06
6.00864e-07
4.52196e-08
1.74825e-09
0.0925493
0.0900432
0.0869126
0.083102
0.0784908
0.0728732
0.0659001
0.0569426
0.044584
0.0238058
0.000737593
1.89615e-05
4.03677e-07
7.33276e-09
1.15659e-10
1.60926e-12
2.00924e-14
0
0
0
0
0
0
0
0
0
0
0
0
0
0.000437654
0.000552975
0.000450974
0.000233046
7.23099e-05
1.45274e-05
2.14631e-06
2.38394e-07
1.80699e-08
6.98235e-10
0.087907
0.0855111
0.0825597
0.0789799
0.0746303
0.0692775
0.062533
0.0537057
0.0412294
0.0201127
0.000625703
1.60441e-05
3.41249e-07
6.16649e-09
9.62667e-11
1.32006e-12
1.61806e-14
0
0
0
0
0
0
0
0
0
0
0
0
0
0.000189932
0.000232628
0.000179357
8.6769e-05
2.61381e-05
5.35398e-06
8.19076e-07
9.36515e-08
7.23239e-09
2.81863e-10
0.0833736
0.0810974
0.0783411
0.0750171
0.0709669
0.0659329
0.0594901
0.0508737
0.0383533
0.0172122
0.000551127
1.43497e-05
3.07422e-07
5.53545e-09
8.53324e-11
1.14836e-12
1.37802e-14
0
0
0
0
0
0
0
0
0
0
0
0
0
7.21493e-05
8.44665e-05
6.23963e-05
2.93214e-05
8.92881e-06
1.91603e-06
3.09009e-07
3.69177e-08
2.94289e-09
1.16971e-10
0.0788885
0.0767439
0.0742012
0.0711626
0.0674585
0.0628152
0.056778
0.048506
0.0361043
0.0152724
0.000521038
1.40881e-05
3.06456e-07
5.4947e-09
8.32279e-11
1.09179e-12
1.26689e-14
0
0
0
0
0
0
0
0
0
0
0
0
0
2.43231e-05
2.71324e-05
1.95552e-05
9.23013e-06
2.9371e-06
6.75424e-07
1.16836e-07
1.48188e-08
1.23865e-09
5.09934e-11
0.0743823
0.0723824
0.0700724
0.06735
0.0640439
0.0598773
0.0543789
0.0466544
0.0346751
0.0144818
0.00055594
1.60278e-05
3.55149e-07
6.29611e-09
9.27822e-11
1.17555e-12
1.32341e-14
0
0
0
0
0
0
0
0
0
0
0
0
0
7.34362e-06
7.86491e-06
5.66025e-06
2.76868e-06
9.46158e-07
2.37789e-07
4.49271e-08
6.17333e-09
5.51729e-10
2.39457e-11
0.0697717
0.0679292
0.0658682
0.0634894
0.0606306
0.0570275
0.0522207
0.0453166
0.0342534
0.0151866
0.000723627
2.26413e-05
5.02469e-07
8.6138e-09
1.21282e-10
1.46517e-12
1.57552e-14
0
0
0
0
0
0
0
0
0
0
0
0
0
1.9725e-06
2.0734e-06
1.53825e-06
8.04643e-07
3.03046e-07
8.50949e-08
1.79082e-08
2.71151e-09
2.64088e-10
1.23517e-11
0.0649516
0.0632766
0.0614751
0.0594569
0.0570785
0.0541066
0.0501325
0.0443506
0.0348727
0.017974
0.00128681
4.10537e-05
8.42566e-07
1.32634e-08
1.73428e-10
1.96917e-12
2.00924e-14
0
0
0
0
0
0
0
0
0
0
0
0
0
4.50239e-07
4.91881e-07
3.95865e-07
2.30087e-07
9.79465e-08
3.12226e-08
7.4332e-09
1.26382e-09
1.37147e-10
7.09472e-12
0.0597842
0.0582816
0.0567385
0.0550783
0.0531828
0.0508634
0.0477966
0.0433575
0.0361162
0.0231924
0.0211111
0.018832
0.0164845
0.0141496
0.0118943
0.00977609
0.00784417
0.00613395
0.00465921
0.00341096
0.00236881
0.00152061
0.000873645
0.000437655
0.000189933
7.21494e-05
2.43231e-05
7.34363e-06
1.9725e-06
4.5024e-07
1.25889e-07
1.07995e-07
9.71097e-08
6.47606e-08
3.18074e-08
1.17052e-08
3.20697e-09
6.24744e-10
7.73703e-11
4.55445e-12
0.0540767
0.0527404
0.0514389
0.0501097
0.04866
0.0469451
0.0447248
0.0415593
0.0365486
0.0283871
0.0248164
0.021881
0.0191069
0.0164501
0.0139154
0.0115359
0.00935238
0.00739983
0.00569397
0.00422653
0.0029764
0.00193349
0.00111601
0.000552978
0.000232629
8.44668e-05
2.71325e-05
7.86493e-06
2.0734e-06
4.91882e-07
1.07995e-07
3.6789e-08
2.52294e-08
1.82154e-08
1.0347e-08
4.45174e-09
1.42686e-09
3.24912e-10
4.70369e-11
3.24183e-12
0.0475478
0.0463588
0.0452653
0.0442172
0.0431413
0.0419269
0.0403981
0.0382574
0.034989
0.030104
0.0263325
0.0230101
0.0198853
0.0169475
0.0142074
0.0116785
0.00939049
0.00736686
0.00560976
0.00410036
0.00281755
0.00176282
0.000966345
0.000450977
0.000179357
6.23966e-05
1.95552e-05
5.66026e-06
1.53825e-06
3.95865e-07
9.71095e-08
2.52293e-08
9.6021e-09
5.67058e-09
3.44873e-09
1.71569e-09
6.48743e-10
1.75535e-10
3.0357e-11
2.51488e-12
0.0398211
0.0387493
0.0378175
0.0369832
0.0361855
0.0353349
0.0342962
0.0328607
0.0307225
0.0276549
0.0244436
0.0212562
0.0181805
0.0152968
0.0126176
0.0101737
0.00799667
0.00610024
0.00447534
0.00310379
0.00198079
0.00112437
0.000551648
0.000233048
8.67694e-05
2.93215e-05
9.23015e-06
2.76868e-06
8.04643e-07
2.30086e-07
6.47603e-08
1.82153e-08
5.67056e-09
2.36788e-09
1.28272e-09
6.87077e-10
3.01554e-10
9.74807e-11
2.04555e-11
2.082e-12
0.0305681
0.029592
0.0287832
0.0281006
0.0274884
0.0268692
0.0261326
0.0251247
0.0236521
0.0215853
0.0191432
0.0165629
0.0139842
0.0115054
0.0092036
0.00713857
0.00534436
0.00382742
0.00257984
0.00159766
0.00088462
0.000430507
0.000185381
7.23103e-05
2.61383e-05
8.92884e-06
2.93711e-06
9.46158e-07
3.03045e-07
9.79462e-08
3.18073e-08
1.03469e-08
3.44871e-09
1.28272e-09
5.84445e-10
3.0267e-10
1.46149e-10
5.55918e-11
1.42156e-11
1.80472e-12
0.020112
0.0192813
0.0186222
0.0180894
0.0176312
0.0171822
0.0166584
0.0159546
0.0149576
0.0135982
0.0119374
0.0101076
0.00824653
0.00647278
0.00487457
0.00350379
0.00237995
0.00150372
0.000867691
0.000452093
0.000213618
9.29236e-05
3.77691e-05
1.45274e-05
5.354e-06
1.91603e-06
6.75425e-07
2.37789e-07
8.50947e-08
3.12225e-08
1.17052e-08
4.45172e-09
1.71568e-09
6.87073e-10
3.02669e-10
1.49727e-10
7.54452e-11
3.27151e-11
1.01075e-11
1.61198e-12
0.00995365
0.00940848
0.00899366
0.00866915
0.00839496
0.00812565
0.00780803
0.00738313
0.00679712
0.00602599
0.00510353
0.00411024
0.00313806
0.00226279
0.00153222
0.000966863
0.000564921
0.00030537
0.000153505
7.22848e-05
3.21219e-05
1.35701e-05
5.49085e-06
2.14632e-06
8.19078e-07
3.0901e-07
1.16836e-07
4.49271e-08
1.79081e-08
7.43317e-09
3.20695e-09
1.42685e-09
6.48739e-10
3.01552e-10
1.46148e-10
7.5445e-11
4.01136e-11
1.9512e-11
7.21122e-12
1.44994e-12
0.00304419
0.00283639
0.00268134
0.00256128
0.00245865
0.00235449
0.00222832
0.00206025
0.00183651
0.00155763
0.00124397
0.000929496
0.00064765
0.00042034
0.000254314
0.000143803
7.63035e-05
3.8185e-05
1.81199e-05
8.19535e-06
3.55118e-06
1.48284e-06
6.00866e-07
2.38394e-07
9.36517e-08
3.69177e-08
1.48188e-08
6.17332e-09
2.7115e-09
1.26382e-09
6.24741e-10
3.2491e-10
1.75534e-10
9.74802e-11
5.55915e-11
3.2715e-11
1.9512e-11
1.08984e-11
4.85778e-12
1.24526e-12
0.00050445
0.000464824
0.000434977
0.00041148
0.000390766
0.000369067
0.000342613
0.000308309
0.000264946
0.00021442
0.000161784
0.000113262
7.35525e-05
4.44355e-05
2.50928e-05
1.33207e-05
6.68731e-06
3.19325e-06
1.45822e-06
6.4008e-07
2.71487e-07
1.11947e-07
4.52197e-08
1.80699e-08
7.2324e-09
2.94289e-09
1.23865e-09
5.51728e-10
2.64087e-10
1.37146e-10
7.73701e-11
4.70368e-11
3.03569e-11
2.04554e-11
1.42156e-11
1.01074e-11
7.21122e-12
4.85778e-12
2.69817e-12
9.0689e-13
3.79814e-05
3.47013e-05
3.21774e-05
3.01343e-05
2.8276e-05
2.62975e-05
2.39171e-05
2.0948e-05
1.73939e-05
1.35062e-05
9.72015e-06
6.46366e-06
3.97897e-06
2.27916e-06
1.22297e-06
6.19168e-07
2.97813e-07
1.36944e-07
6.05414e-08
2.58685e-08
1.07424e-08
4.36371e-09
1.74826e-09
6.98237e-10
2.81864e-10
1.16971e-10
5.09934e-11
2.39456e-11
1.23517e-11
7.0947e-12
4.55444e-12
3.24182e-12
2.51487e-12
2.082e-12
1.80472e-12
1.61197e-12
1.44994e-12
1.24526e-12
9.0689e-13
4.19353e-13
0.498767
0.470415
0.43461
0.397769
0.36324
0.332197
0.304764
0.280672
0.259527
0.240915
0.224459
0.209855
0.196855
0.185245
0.174829
0.16543
0.156896
0.149113
0.14197
0.135374
0.129243
0.123505
0.118095
0.112955
0.108028
0.103259
0.0985919
0.0939668
0.0893171
0.0845677
0.0796323
0.0744137
0.0688033
0.0626544
0.055598
0.0463624
0.0328606
0.0156058
0.00351338
0.000305996
0.470423
0.44426
0.412422
0.37973
0.348714
0.320397
0.295016
0.272453
0.252442
0.234672
0.218853
0.204748
0.19215
0.180869
0.170727
0.161556
0.153224
0.145618
0.138635
0.132186
0.126194
0.120592
0.115318
0.110318
0.10554
0.100931
0.0964361
0.0919969
0.087545
0.0830012
0.078273
0.073256
0.0678365
0.0618666
0.0549738
0.0458505
0.0323815
0.015195
0.00336352
0.00028908
0.434612
0.412422
0.385611
0.357724
0.330746
0.305614
0.282671
0.261946
0.243311
0.226572
0.211548
0.198078
0.185999
0.17515
0.16537
0.156508
0.148452
0.141093
0.134336
0.1281
0.122312
0.116912
0.111844
0.107058
0.102507
0.09814
0.093906
0.0897438
0.0855809
0.0813296
0.0768862
0.0721341
0.0669516
0.0611907
0.0544798
0.0454801
0.0320456
0.0148988
0.00325291
0.000276216
0.397768
0.379731
0.357725
0.334373
0.311263
0.289258
0.268764
0.249917
0.232701
0.217048
0.202883
0.190111
0.178614
0.168256
0.158891
0.150398
0.142671
0.13561
0.129129
0.123152
0.117617
0.112468
0.107658
0.103143
0.0988801
0.0948266
0.0909318
0.0871336
0.0833527
0.0794885
0.0754184
0.0710059
0.0661156
0.0605988
0.0540889
0.0452218
0.0318186
0.014683
0.00316779
0.000265872
0.36324
0.348715
0.330747
0.311264
0.291537
0.272334
0.254075
0.236959
0.221071
0.206458
0.193132
0.181059
0.170158
0.160307
0.151387
0.143295
0.135929
0.129197
0.123021
0.117334
0.11208
0.107213
0.102694
0.0984871
0.0945592
0.0908742
0.0873875
0.0840377
0.0807383
0.0773707
0.073783
0.0698045
0.0652772
0.0600494
0.0537639
0.0450365
0.0316555
0.0145046
0.00309136
0.000256132
0.332197
0.320398
0.305614
0.289259
0.272334
0.255495
0.239141
0.223509
0.208776
0.195073
0.182492
0.171058
0.160716
0.151359
0.142895
0.135215
0.128223
0.121832
0.115972
0.110585
0.105623
0.10105
0.0968334
0.0929513
0.0893819
0.0861018
0.0830779
0.0802558
0.0775458
0.0748079
0.0718462
0.0684294
0.0643607
0.0594834
0.0534548
0.0448725
0.0314969
0.0143086
0.00300332
0.000244772
0.304764
0.295017
0.282671
0.268764
0.254075
0.239141
0.224324
0.209896
0.196081
0.183074
0.171053
0.160131
0.150268
0.141384
0.133361
0.126087
0.119464
0.113411
0.107863
0.10277
0.0980916
0.0938006
0.0898778
0.0863123
0.0830986
0.0802322
0.0777015
0.0754727
0.0734661
0.0715255
0.0693927
0.066722
0.0632518
0.0588159
0.0530936
0.0446611
0.031266
0.014027
0.00288061
0.000229484
0.280672
0.272453
0.261946
0.249917
0.236959
0.223509
0.209896
0.196378
0.183175
0.170521
0.158718
0.148096
0.138633
0.130177
0.122572
0.115685
0.109415
0.103681
0.0984228
0.0935969
0.0891726
0.0851315
0.0814663
0.0781795
0.0752835
0.0727989
0.0707487
0.0691438
0.0679483
0.06702
0.0660313
0.0644075
0.0617654
0.057921
0.0525878
0.0443123
0.0308667
0.0135812
0.00270033
0.000208371
0.259527
0.252442
0.243311
0.232701
0.221071
0.208776
0.196081
0.183175
0.170194
0.157294
0.144937
0.134349
0.125195
0.11713
0.109916
0.103388
0.0974339
0.0919717
0.0869463
0.082321
0.0780752
0.0742017
0.0707057
0.0676038
0.0649252
0.0627156
0.0610433
0.0599998
0.0596735
0.0600514
0.060805
0.0608735
0.0595473
0.056596
0.0518091
0.0437114
0.0301856
0.0128889
0.00244544
0.000180722
0.240916
0.234672
0.226572
0.217048
0.206458
0.195073
0.183074
0.170521
0.157294
0.142975
0.127208
0.116407
0.107555
0.099873
0.0930083
0.0867592
0.0809994
0.0756465
0.0706489
0.0659797
0.0616338
0.0576219
0.0539608
0.0506672
0.0477595
0.0452832
0.0433697
0.0423118
0.0426007
0.0448763
0.0494189
0.0539311
0.0556633
0.0544566
0.0505723
0.0427217
0.0291022
0.0118808
0.00211297
0.000147735
0.224459
0.218853
0.211548
0.202883
0.193132
0.182492
0.171053
0.158718
0.144937
0.127208
0.00478115
0.00359425
0.00402579
0.00422356
0.00426342
0.0042022
0.00407246
0.00389586
0.00368838
0.00346272
0.00322968
0.00299902
0.00278037
0.00258442
0.00242496
0.00232303
0.00231698
0.00249287
0.00310033
0.00512312
0.0468632
0.0507592
0.0526819
0.0522442
0.0489916
0.0412933
0.0275284
0.0105297
0.00172137
0.000112617
0.209855
0.204748
0.198078
0.190111
0.181059
0.171059
0.160131
0.148096
0.134349
0.116408
0.00359424
0.00022289
0.000150827
0.000169374
0.000178817
0.000180174
0.000175769
0.00016739
0.00015645
0.000144093
0.00013126
0.000118744
0.000107236
9.73996e-05
8.99794e-05
8.6043e-05
8.75648e-05
9.9097e-05
0.000133151
0.000224775
0.0442423
0.0482264
0.05018
0.0501194
0.0471318
0.0394307
0.0254208
0.00887588
0.00130948
7.95442e-05
0.196856
0.19215
0.185999
0.178614
0.170158
0.160716
0.150268
0.138633
0.125195
0.107555
0.00402578
0.000150827
7.44268e-06
4.69046e-06
5.12801e-06
5.31336e-06
5.25048e-06
5.00864e-06
4.65025e-06
4.22824e-06
3.78601e-06
3.35818e-06
2.97217e-06
2.65063e-06
2.41554e-06
2.29594e-06
2.34508e-06
2.68311e-06
3.6033e-06
5.61146e-06
0.0416513
0.0458938
0.0479121
0.0480111
0.0450298
0.0371392
0.0227631
0.00703514
0.000924094
5.19682e-05
0.185245
0.180869
0.17515
0.168257
0.160307
0.15136
0.141384
0.130178
0.11713
0.0998732
0.00422356
0.000169373
4.69045e-06
1.9602e-07
1.15987e-07
1.22006e-07
1.22411e-07
1.17324e-07
1.08555e-07
9.7763e-08
8.63214e-08
7.529e-08
6.54428e-08
5.73359e-08
5.14193e-08
4.82201e-08
4.86825e-08
5.48859e-08
7.13482e-08
1.02193e-07
0.0390946
0.0436037
0.0456906
0.0457952
0.0426761
0.0343951
0.0195652
0.00518555
0.000603214
3.14744e-05
0.17483
0.170727
0.16537
0.158891
0.151387
0.142895
0.133362
0.122572
0.109916
0.0930084
0.00426341
0.000178817
5.128e-06
1.15987e-07
4.20081e-09
2.33918e-09
2.35101e-09
2.2659e-09
2.09247e-09
1.86963e-09
1.63054e-09
1.40027e-09
1.196e-09
1.02854e-09
9.04958e-10
8.32038e-10
8.21771e-10
9.00836e-10
1.1226e-09
1.50038e-09
0.03657
0.0413099
0.0434224
0.0434373
0.0400266
0.0311395
0.0159025
0.0035236
0.000364582
1.77601e-05
0.16543
0.161557
0.156508
0.150398
0.143296
0.135216
0.126087
0.115686
0.103389
0.0867594
0.00420219
0.000180174
5.31334e-06
1.22006e-07
2.33917e-09
7.45717e-11
3.90765e-11
3.73644e-11
3.44389e-11
3.05451e-11
2.63269e-11
2.22689e-11
1.86863e-11
1.57563e-11
1.35665e-11
1.21773e-11
1.16989e-11
1.24013e-11
1.48092e-11
1.8728e-11
0.03406
0.0389751
0.0410597
0.0408789
0.0369987
0.027289
0.0119906
0.00219737
0.00020491
9.39776e-06
0.156897
0.153225
0.148452
0.142671
0.13593
0.128223
0.119464
0.109415
0.0974342
0.0809996
0.00407246
0.000175768
5.25047e-06
1.22411e-07
2.351e-09
3.90764e-11
1.11047e-12
5.47693e-13
4.97199e-13
4.37465e-13
3.72713e-13
3.10518e-13
2.55915e-13
2.1145e-13
1.77908e-13
1.55535e-13
1.45153e-13
1.48506e-13
1.70382e-13
2.06135e-13
0.0315254
0.0365472
0.0385326
0.0380258
0.0334706
0.0227842
0.00822614
0.00125852
0.000107785
4.69578e-06
0.149113
0.145618
0.141093
0.13561
0.129198
0.121832
0.113411
0.103681
0.091972
0.0756467
0.00389586
0.000167389
5.00863e-06
1.17324e-07
2.26589e-09
3.73643e-11
5.47693e-13
1.39199e-14
6.2265e-15
5.27712e-15
4.34045e-15
3.44823e-15
2.70841e-15
2.08291e-15
1.58123e-15
1.25419e-15
1.08273e-15
1.08273e-15
1.29864e-15
1.66061e-15
0.0288971
0.0339447
0.0357365
0.0347429
0.029297
0.0177017
0.00507173
0.000665952
5.34462e-05
2.23047e-06
0.141971
0.138635
0.134337
0.129129
0.123021
0.115973
0.107864
0.0984231
0.0869465
0.0706491
0.00368837
0.000156449
4.65024e-06
1.08555e-07
2.09246e-09
3.44387e-11
4.97199e-13
6.2265e-15
0
0
0
0
0
0
0
0
0
0
0
0
0.0260669
0.0310448
0.0325238
0.0308611
0.0243632
0.0124213
0.00280744
0.000328636
2.51581e-05
1.01335e-06
0.135375
0.132186
0.1281
0.123152
0.117334
0.110586
0.10277
0.0935972
0.0823212
0.0659799
0.00346272
0.000144093
4.22823e-06
9.77628e-08
1.86962e-09
3.05449e-11
4.37465e-13
5.27712e-15
0
0
0
0
0
0
0
0
0
0
0
0
0.022887
0.0276811
0.02871
0.0262118
0.0187158
0.00766249
0.00140713
0.000152732
1.13143e-05
4.42883e-07
0.129244
0.126194
0.122313
0.117617
0.11208
0.105624
0.0980919
0.0891729
0.0780754
0.0616339
0.00322968
0.00013126
3.78601e-06
8.63212e-08
1.63053e-09
2.63267e-11
3.72713e-13
4.34045e-15
0
0
0
0
0
0
0
0
0
0
0
0
0.0192028
0.0236675
0.0241161
0.0207295
0.0127877
0.00411411
0.000647931
6.74411e-05
4.89161e-06
1.87302e-07
0.123505
0.120592
0.116913
0.112469
0.107214
0.10105
0.0938009
0.0851318
0.0742019
0.057622
0.00299902
0.000118744
3.35817e-06
7.52899e-08
1.40027e-09
2.22687e-11
3.10518e-13
3.44823e-15
0
0
0
0
0
0
0
0
0
0
0
0
0.0149597
0.0188877
0.0186944
0.0146735
0.00749279
0.00194104
0.00027867
2.85289e-05
2.04691e-06
7.71782e-08
0.118096
0.115319
0.111845
0.107658
0.102694
0.0968338
0.0898781
0.0814666
0.0707059
0.0539609
0.00278037
0.000107236
2.97216e-06
6.54427e-08
1.19599e-09
1.86863e-11
2.55915e-13
2.70841e-15
0
0
0
0
0
0
0
0
0
0
0
0
0.0104021
0.0135056
0.0127864
0.00887204
0.00371367
0.000820954
0.00011358
1.16597e-05
8.35854e-07
3.12526e-08
0.112955
0.110319
0.107059
0.103143
0.0984875
0.0929516
0.0863126
0.0781797
0.067604
0.0506673
0.00258442
9.73996e-05
2.65063e-06
5.73358e-08
1.02854e-09
1.57563e-11
2.1145e-13
2.08291e-15
0
0
0
0
0
0
0
0
0
0
0
0
0.00619216
0.00822335
0.00733676
0.00444264
0.00157698
0.000319301
4.44412e-05
4.64989e-06
3.36575e-07
1.25777e-08
0.108028
0.10554
0.102507
0.0988806
0.0945596
0.0893822
0.0830989
0.0752838
0.0649254
0.0477597
0.00242496
8.99793e-05
2.41554e-06
5.14193e-08
9.04957e-10
1.35664e-11
1.77908e-13
1.58123e-15
0
0
0
0
0
0
0
0
0
0
0
0
0.00307047
0.00409415
0.00342611
0.00184582
0.000589149
0.000117215
1.69184e-05
1.83169e-06
1.3542e-07
5.1043e-09
0.103259
0.100931
0.0981405
0.094827
0.0908746
0.0861022
0.0802325
0.0727991
0.0627159
0.0452833
0.00232303
8.6043e-05
2.29594e-06
4.82201e-08
8.32037e-10
1.21773e-11
1.55535e-13
1.25419e-15
0
0
0
0
0
0
0
0
0
0
0
0
0.00126346
0.00165151
0.00130784
0.000653298
0.000201233
4.15433e-05
6.3583e-06
7.23068e-07
5.53134e-08
2.12658e-09
0.0985923
0.0964366
0.0939065
0.0909322
0.0873879
0.0830783
0.0777018
0.070749
0.0610435
0.0433698
0.00231698
8.75648e-05
2.34508e-06
4.86825e-08
8.21771e-10
1.16989e-11
1.45153e-13
1.08273e-15
0
0
0
0
0
0
0
0
0
0
0
0
0.000440234
0.000553187
0.000422997
0.000206563
6.53577e-05
1.44925e-05
2.39515e-06
2.90588e-07
2.33567e-08
9.29779e-10
0.0939672
0.0919974
0.0897443
0.0871339
0.084038
0.0802562
0.075473
0.0691441
0.06
0.0423119
0.00249287
9.90971e-05
2.68311e-06
5.48859e-08
9.00836e-10
1.24013e-11
1.48506e-13
1.08273e-15
0
0
0
0
0
0
0
0
0
0
0
0
0.00013403
0.000161148
0.000122348
6.12613e-05
2.07541e-05
5.05698e-06
9.18246e-07
1.21085e-07
1.04193e-08
4.37248e-10
0.0893175
0.0875455
0.0855813
0.0833531
0.0807387
0.0775461
0.0734664
0.0679486
0.0596737
0.0426008
0.00310034
0.000133151
3.6033e-06
7.13482e-08
1.1226e-09
1.48093e-11
1.70382e-13
1.29864e-15
0
0
0
0
0
0
0
0
0
0
0
0
3.60308e-05
4.21473e-05
3.28914e-05
1.75551e-05
6.5624e-06
1.79366e-06
3.6423e-07
5.31021e-08
4.98855e-09
2.2571e-10
0.084568
0.0830016
0.08133
0.0794889
0.0773711
0.0748082
0.0715258
0.0670203
0.0600516
0.0448764
0.00512312
0.000224775
5.61146e-06
1.02193e-07
1.50038e-09
1.8728e-11
2.06135e-13
1.66061e-15
0
0
0
0
0
0
0
0
0
0
0
0
8.2214e-06
9.88212e-06
8.34721e-06
4.94135e-06
2.09008e-06
6.51036e-07
1.50174e-07
2.46708e-08
2.58821e-09
1.29671e-10
0.0796326
0.0782733
0.0768865
0.0754187
0.0737833
0.0718465
0.0693929
0.0660316
0.0608052
0.049419
0.0468634
0.0442424
0.0416514
0.0390947
0.0365701
0.0340601
0.0315255
0.0288972
0.0260669
0.022887
0.0192028
0.0149597
0.0104021
0.00619218
0.00307048
0.00126346
0.000440235
0.00013403
3.60309e-05
8.22143e-06
2.29587e-06
2.12528e-06
2.0093e-06
1.36529e-06
6.67666e-07
2.40977e-07
6.42251e-08
1.21314e-08
1.45631e-09
8.31745e-11
0.074414
0.0732564
0.0721345
0.0710062
0.0698049
0.0684296
0.0667223
0.0644077
0.0608737
0.0539313
0.0507593
0.0482265
0.0458939
0.0436039
0.04131
0.0389752
0.0365473
0.0339448
0.0310448
0.0276812
0.0236675
0.0188877
0.0135056
0.00822338
0.00409417
0.00165151
0.000553189
0.000161148
4.21474e-05
9.88214e-06
2.12528e-06
7.17897e-07
5.09586e-07
3.75832e-07
2.13218e-07
9.02922e-08
2.82563e-08
6.25978e-09
8.80922e-10
5.9044e-11
0.0688035
0.0678368
0.0669519
0.0661159
0.0652774
0.0643609
0.063252
0.0617656
0.0595476
0.0556635
0.052682
0.0501802
0.0479122
0.0456907
0.0434225
0.0410598
0.0385327
0.0357366
0.0325239
0.0287101
0.0241162
0.0186944
0.0127864
0.00733679
0.00342613
0.00130785
0.000422998
0.000122348
3.28914e-05
8.34721e-06
2.00929e-06
5.09585e-07
1.91701e-07
1.14312e-07
6.96028e-08
3.4201e-08
1.26684e-08
3.34487e-09
5.63862e-10
4.55467e-11
0.0626547
0.0618668
0.061191
0.0605991
0.0600497
0.0594836
0.0588161
0.0579212
0.0565962
0.0544568
0.0522444
0.0501195
0.0480113
0.0457953
0.0434375
0.0408791
0.0380259
0.034743
0.0308612
0.0262119
0.0207296
0.0146735
0.00887208
0.00444266
0.00184583
0.0006533
0.000206564
6.12614e-05
1.75551e-05
4.94134e-06
1.36529e-06
3.7583e-07
1.14311e-07
4.70691e-08
2.53553e-08
1.34337e-08
5.78975e-09
1.83037e-09
3.75191e-10
3.73278e-11
0.0555982
0.054974
0.05448
0.0540891
0.0537641
0.053455
0.0530938
0.052588
0.0518093
0.0505725
0.0489917
0.047132
0.04503
0.0426762
0.0400267
0.0369988
0.0334707
0.0292971
0.0243633
0.0187159
0.0127877
0.00749283
0.00371369
0.00157699
0.000589152
0.000201234
6.53578e-05
2.07541e-05
6.56239e-06
2.09007e-06
6.67664e-07
2.13216e-07
6.96024e-08
2.53552e-08
1.13676e-08
5.80257e-09
2.75133e-09
1.02386e-09
2.5587e-10
3.17979e-11
0.0463625
0.0458507
0.0454803
0.045222
0.0450367
0.0448727
0.0446613
0.0443124
0.0437116
0.0427219
0.0412935
0.0394309
0.0371393
0.0343953
0.0311396
0.0272891
0.0227843
0.0177018
0.0124214
0.00766254