/*--------------------------------*- C++ -*----------------------------------*\
| =========                 |                                                 |
| \\      /  F ield         | OpenFOAM: The Open Source CFD Toolbox           |
|  \\    /   O peration     | Version:  2.1.0                                 |
|   \\  /    A nd           | Web:      www.OpenFOAM.org                      |
|    \\/     M anipulation  |                                                 |
\*---------------------------------------------------------------------------*/
FoamFile
{
    version     2.0;
    format      ascii;
    class       surfaceScalarField;
    location    "24090";
    object      phi_o;
}
// * * * * * * * * * * * * * * * * * * * * * * * * * * * * * * * * * * * * * //

dimensions      [1 -2 -2 0 0 0 0];

internalField   nonuniform List<scalar> 
22000
(
12.9834
12.9833
-20.9837
21.8304
11.5735
-15.9681
26.5803
9.65484
-10.5402
28.6437
7.82427
-6.50972
29.2779
6.28894
-3.92246
29.2854
5.05939
-2.36086
29.1129
4.0832
-1.43744
28.9901
3.30181
-0.888964
29.0248
2.66852
-0.556932
29.2568
2.15011
-0.351639
29.6892
1.72445
-0.22238
30.3047
1.37694
-0.139104
31.0761
1.09708
-0.083748
31.9718
0.876359
-0.0455687
32.9596
0.707297
-0.0183606
34.008
0.583316
0.00143521
35.088
0.499097
0.0170596
36.172
0.450913
0.0302613
37.2327
0.436896
0.0421649
38.2415
0.457156
0.0535374
39.1669
0.513836
0.0649302
39.9725
0.611083
0.0767951
40.6157
0.754841
0.0895503
41.0465
0.952307
0.103653
41.2075
1.21085
0.11963
41.0356
1.53615
0.138092
40.4669
1.92951
0.159782
39.4444
2.3846
0.185601
37.9296
2.88454
0.216563
35.9147
3.40127
0.253643
33.4316
3.89926
0.297222
30.5568
4.3441
0.345707
27.4103
4.71305
0.389702
24.1484
4.99996
0.395442
20.9252
5.21435
0.27604
17.7521
5.37337
-0.105854
14.3302
5.4839
-0.735174
10.038
5.53612
-1.18152
5.10394
5.55171
-0.809658
5.55898
-0.481494
11.5736
21.8302
-15.968
19.9117
19.9116
-12.6467
24.7497
17.0919
-8.70475
27.1084
14.2124
-5.5681
28.0483
11.6609
-3.44924
28.3092
9.52798
-2.12062
28.3315
7.77698
-1.31148
28.3568
6.33841
-0.819638
28.5063
5.14834
-0.516842
28.8312
4.15869
-0.327581
29.3417
3.33722
-0.20734
30.0249
2.6624
-0.129079
30.8554
2.11772
-0.0764625
31.8028
1.6883
-0.0397909
32.8356
1.36006
-0.0134345
33.9238
1.11992
0.00601596
35.0398
0.957239
0.0216712
36.1579
0.864565
0.0351446
37.2529
0.838089
0.0474799
38.2982
0.878002
0.0593942
39.2641
0.988683
0.0714061
40.1162
1.17873
0.0839549
40.8131
1.46065
0.0974587
41.305
1.84995
0.112354
41.5328
2.36318
0.129147
41.429
3.01437
0.14842
40.922
3.80939
0.170859
39.9443
4.73842
0.197315
38.4464
5.76831
0.228781
36.4127
6.83915
0.266222
33.8764
7.87125
0.310154
30.9257
8.78649
0.359315
27.6972
9.5347
0.404138
24.3628
10.1039
0.409401
21.0842
10.5141
0.283698
17.8626
10.7997
-0.115617
14.3824
10.9842
-0.763428
10.0536
11.0761
-1.19912
5.11121
11.1121
-0.806776
11.1267
-0.481244
9.65497
26.5801
-10.5403
17.092
24.7496
-8.70478
21.8703
21.8701
-6.31312
24.5569
18.7173
-4.24301
25.9154
15.7431
-2.74224
26.5582
13.1205
-1.74496
26.893
10.8695
-1.10771
27.1667
8.95122
-0.704971
27.5167
7.31604
-0.449816
28.0097
5.92444
-0.287006
28.6668
4.75119
-0.181566
29.4802
3.77982
-0.111551
30.426
2.99457
-0.0635259
31.4745
2.37707
-0.0294624
32.5955
1.90703
-0.00467866
33.7611
1.56463
0.0142622
34.9471
1.33366
0.0300183
36.1315
1.20251
0.0439684
37.2928
1.16525
0.0570367
38.4088
1.22207
0.0698601
39.4541
1.37972
0.0829127
40.3981
1.65159
0.0965948
41.2024
2.05771
0.111287
41.8183
2.62383
0.127391
42.184
3.37927
0.145348
42.224
4.35205
0.165663
41.851
5.56012
0.188952
40.9742
6.99781
0.215983
39.5172
8.61902
0.247668
37.4448
10.3248
0.284989
34.7917
11.9704
0.328769
31.6739
13.4085
0.378119
28.2663
14.5516
0.42326
24.773
15.3877
0.427218
21.3698
15.9597
0.29338
18.047
16.3309
-0.126132
14.4744
16.5517
-0.793677
10.0895
16.6568
-1.21964
5.12586
16.6969
-0.807039
16.7113
-0.482239
7.8244
28.6436
-6.50981
14.2125
27.1082
-5.56812
18.7175
24.5566
-4.24301
21.5827
21.5825
-3.00077
23.2928
18.6002
-2.03165
24.3072
15.8196
-1.3443
24.9747
13.3127
-0.879551
25.5315
11.0822
-0.572016
26.1251
9.10989
-0.370305
26.8365
7.38261
-0.237783
27.6955
5.89951
-0.149449
28.6949
4.66366
-0.0890835
29.8085
3.6672
-0.0465508
31.0045
2.88946
-0.0157438
32.2531
2.30228
0.00722304
33.5301
1.87806
0.0257962
34.816
1.59359
0.0418547
36.0942
1.43251
0.0565789
37.3497
1.3864
0.0707475
38.5665
1.45533
0.0848993
39.726
1.64829
0.0994371
40.8043
1.98371
0.114701
41.7686
2.48993
0.130999
42.5737
3.20524
0.148646
43.1568
4.17652
0.168
43.4321
5.45451
0.189455
43.2887
7.08279
0.213496
42.5954
9.07645
0.240756
41.223
11.3888
0.272043
39.0904
13.8745
0.3084
36.2298
16.2818
0.351102
32.817
18.3322
0.399602
29.1025
19.8852
0.444087
25.345
20.9503
0.446036
21.741
21.6222
0.303829
18.2678
22.015
-0.135243
14.5795
22.2184
-0.821214
10.1297
22.2958
-1.23967
5.14026
22.3125
-0.809419
22.3132
-0.484148
6.28903
29.2776
-3.9225
11.661
28.048
-3.44924
15.7433
25.9151
-2.74224
18.6004
23.2925
-2.03165
20.5122
20.5119
-1.43735
21.8003
17.7758
-0.987451
22.7442
15.1799
-0.665421
23.5592
12.7585
-0.442277
24.3978
10.5251
-0.290157
25.3534
8.50217
-0.186425
26.4596
6.73115
-0.114672
27.6985
5.25524
-0.0638609
29.0308
4.0797
-0.0269727
30.4173
3.17698
0.000341424
31.8289
2.50644
0.0220998
33.2456
2.0283
0.0406354
34.6549
1.71045
0.0574251
36.0481
1.53093
0.0734178
37.4186
1.47852
0.0892354
38.7594
1.5529
0.105302
40.0614
1.76495
0.121921
41.3105
2.1377
0.139325
42.4839
2.70783
0.157711
43.545
3.52756
0.177276
44.4348
4.66594
0.198244
45.0604
6.20738
0.220867
45.2824
8.24209
0.245464
44.9078
10.839
0.272479
43.7086
13.9876
0.302593
41.4977
17.5041
0.337008
38.2802
20.9518
0.377334
34.37
23.756
0.423455
30.1676
25.7122
0.465886
26.0168
26.9166
0.464917
22.1338
27.5765
0.314075
18.4712
27.8905
-0.144005
14.6569
27.9989
-0.847289
10.1464
27.9927
-1.25897
5.14094
27.9493
-0.811973
27.9185
-0.486048
5.05946
29.285
-2.36087
9.5281
28.3088
-2.12062
13.1206
26.5578
-1.74496
15.8199
24.3069
-1.3443
17.7761
21.7999
-0.987454
19.2044
19.2041
-0.700763
20.3228
16.6116
-0.484709
21.3258
14.0671
-0.328159
22.3749
11.6028
-0.216666
23.5823
9.27668
-0.137207
24.9837
7.19724
-0.0798119
26.5229
5.49167
-0.0375624
28.128
4.17498
-0.00592991
29.7468
3.19591
0.0189358
31.3507
2.48822
0.0401007
32.9278
1.99356
0.0592563
34.4754
1.66868
0.0774965
35.9957
1.48567
0.0955291
37.493
1.43064
0.113817
38.9715
1.50267
0.132637
40.4342
1.71379
0.15214
41.8806
2.0902
0.172392
43.3036
2.67512
0.193407
44.6834
3.5333
0.215209
45.9762
4.75728
0.237867
47.0951
6.47422
0.2615
47.8793
8.84747
0.286325
48.0564
12.0575
0.312676
47.2252
16.2241
0.34117
44.9453
21.2063
0.372811
41.0845
26.2666
0.409077
36.3262
30.0287
0.450522
31.372
32.2938
0.488674
26.6768
33.4354
0.483066
22.4477
33.8878
0.322197
18.5796
33.9723
-0.155851
14.6507
33.8817
-0.87588
10.103
33.7226
-1.27827
5.11019
33.5768
-0.812513
33.495
-0.486903
4.08325
29.1125
-1.43744
7.77709
28.3311
-1.31148
10.8697
26.8926
-1.10772
13.3129
24.9743
-0.87956
15.1802
22.7438
-0.665427
16.612
20.3223
-0.484711
17.7782
17.7778
-0.342144
18.8616
15.1385
-0.233874
20.0487
12.4266
-0.152905
21.5029
9.71687
-0.092294
23.2781
7.2215
-0.0464816
25.2062
5.28477
-0.0114454
27.149
3.88788
0.0162932
29.0391
2.90755
0.0401065
30.8561
2.22832
0.0618185
32.6029
1.76666
0.0826585
34.2923
1.46815
0.10343
35.9407
1.30056
0.124629
37.565
1.24853
0.146542
39.1826
1.31079
0.169242
40.8106
1.49942
0.19262
42.4655
1.84118
0.216438
44.1618
2.38135
0.240378
45.9074
3.19066
0.264193
47.6931
4.37778
0.287852
49.4683
6.11016
0.311629
51.0893
8.64315
0.336196
52.223
12.3461
0.362167
52.2074
17.6682
0.389725
50.0057
24.847
0.418609
44.8465
32.8886
0.448924
38.5913
37.8024
0.48204
32.5136
40.0031
0.51229
27.1291
40.6525
0.498982
22.5323
40.5773
0.324547
18.489
40.2276
-0.176868
14.4916
39.8149
-0.91315
9.9572
39.4295
-1.29854
5.02837
39.1406
-0.808486
38.9898
-0.485568
3.30186
28.9896
-0.888967
6.33851
28.3563
-0.819647
8.95139
27.1662
-0.704983
11.0824
25.531
-0.572026
12.7588
23.5587
-0.442284
14.0674
21.3253
-0.328163
15.139
18.861
-0.233875
16.1496
16.149
-0.15856
17.339
13.1457
-0.0992035
19.0075
9.86319
-0.0525498
21.3414
6.62401
-0.0158485
23.8094
4.48648
0.0139606
26.1686
3.14401
0.0401782
28.3598
2.28785
0.0645121
30.3944
1.72973
0.0882055
32.3044
1.36397
0.112129
34.1248
1.13219
0.136839
35.8886
1.00325
0.16264
37.6273
0.963296
0.189584
39.3712
1.01159
0.217384
41.1524
1.15912
0.245431
43.0057
1.42941
0.272852
44.9711
1.8627
0.298596
47.0945
2.52385
0.322041
49.4255
3.51787
0.34351
52.0013
5.02244
0.364339
54.7922
7.35555
0.386765
57.5451
11.1055
0.412932
59.3863
17.3392
0.443093
58.0473
27.6917
0.473796
49.7603
42.6813
0.498594
40.792
48.3127
0.517665
33.1631
49.2781
0.534175
27.0539
48.6094
0.508345
22.1826
47.5522
0.313988
18.0763
46.5378
-0.216534
14.1062
45.6893
-0.967235
9.66827
45.0204
-1.32039
4.8776
44.5614
-0.797214
44.3311
-0.480975
2.66857
29.0242
-0.556937
5.14843
28.5058
-0.516852
7.31619
27.5161
-0.449827
9.1101
26.1245
-0.370314
10.5254
24.3972
-0.290164
11.6031
22.3742
-0.216669
12.427
20.0481
-0.152906
13.1463
17.3383
-0.0992038
14.0565
14.0557
-0.054719
15.7684
9.89654
-0.0184916
19.2039
4.87078
0.0111667
22.4669
2.85371
0.0388039
25.3125
1.88876
0.0654102
27.8017
1.35948
0.0918648
30.0286
1.04266
0.118969
32.0726
0.845984
0.147316
33.9958
0.727296
0.177209
35.8487
0.666409
0.20871
37.6756
0.654717
0.241549
39.5188
0.69259
0.274733
41.4227
0.789152
0.306611
43.439
0.963578
0.335113
45.6322
1.2465
0.35751
48.0885
1.68304
0.371534
50.9301
2.34047
0.377316
54.3344
3.33422
0.379261
58.5422
4.90716
0.386371
63.7788
7.6513
0.409345
69.7388
13.1582
0.453984
73.0368
26.1423
0.511325
55.3917
62.0218
0.547844
41.7575
63.5885
0.545579
32.4943
60.2333
0.542064
25.9967
56.9828
0.499775
21.1682
54.4922
0.277248
17.2277
52.6616
-0.287958
13.4373
51.332
-1.04694
9.2093
50.3698
-1.34278
4.64731
49.7431
-0.776305
49.436
-0.472395
2.15015
29.2562
-0.351644
4.15877
28.8305
-0.327589
5.92457
28.0091
-0.287015
7.38279
26.8358
-0.23779
8.5024
25.3527
-0.186429
9.27698
23.5816
-0.137209
9.71726
21.5021
-0.0922946
9.8637
19.0067
-0.0525501
9.89729
15.7673
-0.018492
10.7426
10.7412
0.0096103
17.1868
4.73008
0.032004
21.5019
8.88386
0.0583687
24.7832
11.799
0.0859059
27.4849
14.4473
0.11456
29.832
17.0315
0.144797
31.9539
19.6306
0.176901
33.9349
22.2898
0.210682
35.837
25.0414
0.24593
37.7134
27.9131
0.282441
39.6153
30.9286
0.318506
41.5971
34.1049
0.350106
43.7219
37.4519
0.37013
46.0688
40.974
0.368477
48.7459
44.6837
0.33584
51.9238
48.6409
0.271165
55.9074
53.0322
0.190154
61.2863
58.3334
0.127447
69.2856
65.7806
0.126357
82.723
79.1771
0.217887
108.916
112.74
0.393577
56.9584
116.884
0.528684
38.4023
84.1906
0.510064
29.2439
71.1764
0.499956
23.5061
64.6297
0.451116
19.3376
60.764
0.194198
15.8982
58.2449
-0.404855
12.4751
56.5319
-1.15831
8.58253
55.3426
-1.36106
4.34025
54.5889
-0.744471
54.2239
-0.459729
1.72449
29.6885
-0.222384
3.3373
29.341
-0.207347
4.75131
28.6661
-0.181573
5.89967
27.6947
-0.149453
6.73135
26.4589
-0.114674
7.19749
24.9829
-0.0798128
7.2218
23.2773
-0.046482
6.62436
21.3405
-0.0158492
4.87113
19.2028
0.0111651
4.73149
17.1856
0.0320011
21.3406
21.3386
-0.595514
24.417
34.2186
-0.887058
27.4315
43.6284
-1.1622
30.0691
51.1887
-1.43906
32.4311
57.6151
-1.72925
34.6131
63.2848
-2.04141
36.6866
68.4166
-2.38272
38.7087
73.1539
-2.75876
40.7289
77.6022
-3.17517
42.7916
81.8506
-3.63785
44.9441
85.9872
-4.1496
47.2441
90.1127
-4.70714
49.7785
94.3548
-5.29792
52.7031
98.8861
-5.89798
56.3152
103.941
-6.48254
61.2085
109.838
-7.05376
68.7335
116.988
-7.68138
82.6821
125.758
-8.54667
116.286
135.185
-9.84318
113.06
134.899
-10.0631
24.2648
96.7328
0.0934325
25.3881
84.8105
0.302174
22.6971
75.6856
0.394915
19.6404
69.6501
0.358208
16.8184
65.6664
0.0531413
14.1852
62.9725
-0.572267
11.2858
61.1182
-1.29986
7.82878
59.835
-1.36587
3.97528
59.0253
-0.702623
58.6336
-0.443606
1.37697
30.304
-0.139108
2.66246
30.0241
-0.129083
3.77992
29.4794
-0.111555
4.66379
28.6941
-0.0890859
5.25541
27.6977
-0.063862
5.49186
26.5221
-0.0375628
5.285
25.2053
-0.011446
4.48671
23.8084
0.0139593
2.85389
22.4658
0.0388014
8.88449
21.5008
0.0583645
34.2206
24.4157
-0.887113
33.8268
33.8252
-0.473486
34.9918
42.0232
-0.441845
36.4956
49.161
-0.490758
38.1007
55.4572
-0.563462
39.7449
61.1125
-0.6486
41.4238
66.2814
-0.743646
43.1571
71.0798
-0.849092
44.9772
75.598
-0.966883
46.9282
79.9119
-1.09934
49.0696
84.0893
-1.24825
51.4861
88.1976
-1.41358
54.3098
92.3065
-1.59216
57.7584
96.4862
-1.77823
62.2113
100.793
-1.96525
68.3585
105.222
-2.1517
77.5041
109.56
-2.3444
92.1092
112.981
-2.53965
116
112.941
-2.61259
74.8936
102.907
-1.88226
12.3426
87.7104
-0.0625702
16.2632
82.6425
0.158693
16.6617
77.1485
0.274062
15.6566
72.6493
0.21708
14.1245
69.2608
-0.141189
12.3309
66.8082
-0.786271
10.0026
65.0462
-1.46221
7.01905
63.8105
-1.34476
3.58361
63.0204
-0.65438
62.6359
-0.425257
1.0971
31.0753
-0.0837505
2.11777
30.8546
-0.076465
2.99465
30.4252
-0.0635278
3.6673
29.8076
-0.0465519
4.07983
29.0299
-0.0269732
4.17513
28.1271
-0.00593042
3.88804
27.148
0.0162922
3.14416
26.1677
0.0401763
1.88886
25.3115
0.065407
11.7994
24.7821
0.0859011
43.6301
27.4304
-1.16225
42.0247
34.9905
-0.441856
42.1297
42.1283
-0.277972
42.7917
48.7009
-0.24545
43.756
54.6966
-0.251654
44.9138
60.1803
-0.275292
46.2222
65.2333
-0.30929
47.6754
69.9313
-0.350923
49.2911
74.3401
-0.399328
51.1057
78.5149
-0.45499
53.1779
82.5028
-0.517636
55.5951
86.3404
-0.586938
58.4895
90.0505
-0.661758
62.0655
93.6299
-0.739667
66.6399
97.0195
-0.817984
72.6968
100.042
-0.894155
80.9252
102.276
-0.961947
92.0694
102.814
-0.997678
105.966
99.9409
-0.923864
59.6973
91.1703
-0.557022
7.27466
83.3751
-0.17508
10.7692
80.8992
0.0168123
12.1625
77.6344
0.115634
12.2681
74.5174
0.0112326
11.6719
71.917
-0.38153
10.569
69.8996
-1.04085
8.76689
68.3807
-1.63004
6.22899
67.2974
-1.28697
3.1991
66.5864
-0.605088
66.2368
-0.406144
0.876378
31.971
-0.045571
1.68834
31.8019
-0.0397926
2.37713
31.4736
-0.0294635
2.88954
31.0036
-0.0157444
3.17708
30.4164
0.0003409
3.19602
29.7458
0.018935
2.90766
29.0381
0.040105
2.28795
28.3588
0.0645095
1.35954
27.8007
0.0918609
14.4477
27.4838
0.114554
51.1902
30.068
-1.4391
49.1625
36.4944
-0.490772
48.7023
42.7904
-0.245454
48.7875
48.7861
-0.171881
49.2397
54.3923
-0.148873
49.9668
59.5999
-0.147515
50.9202
64.4362
-0.157418
52.0841
68.9405
-0.173939
53.4659
73.1524
-0.195133
55.0935
77.1069
-0.220241
57.0155
80.8292
-0.248845
59.3052
84.3307
-0.280558
62.0688
87.6013
-0.314704
65.455
90.5938
-0.350225
69.6626
93.1972
-0.385844
74.9302
95.1927
-0.419458
81.464
96.1862
-0.445793
89.1958
95.5344
-0.452497
97.1951
92.3575
-0.416932
51.902
85.9123
-0.324412
4.79882
81.2972
-0.310686
7.50438
79.9474
-0.151393
9.04553
77.9627
-0.0915457
9.66776
75.8717
-0.238032
9.6545
73.9908
-0.664288
9.05004
72.4466
-1.32789
7.6836
71.242
-1.78153
5.51794
70.3644
-1.19061
2.84959
69.7679
-0.559693
69.4712
-0.387487
0.70731
32.9587
-0.0183631
1.3601
32.8347
-0.013436
1.90707
32.5946
-0.00467972
2.30235
32.2521
0.00722228
2.50651
31.8279
0.022099
2.4883
31.3497
0.0400994
2.2284
30.8551
0.0618163
1.7298
30.3934
0.0882022
1.0427
30.0276
0.118964
17.0318
29.8309
0.14479
57.6166
32.43
-1.72929
55.4586
38.0995
-0.563477
54.698
43.7547
-0.25166
54.3936
49.2384
-0.148875
54.4473
54.446
-0.107186
54.8031
59.3362
-0.0916339
55.4246
63.9038
-0.0891615
56.2961
68.1622
-0.0936012
57.4204
72.1302
-0.102002
58.8157
75.8246
-0.113429
60.517
79.2544
-0.127105
62.5759
82.4142
-0.14241
65.0613
85.2751
-0.159239
68.0584
87.7734
-0.177056
71.6582
89.7926
-0.195065
75.9237
91.1399
-0.212807
80.8121
91.5259
-0.22886
86.019
90.5695
-0.241676
90.75
87.8854
-0.258382
47.2869
83.3489
-0.324536
3.44907
80.4227
-0.481312
5.51967
79.6334
-0.350408
6.95448
78.4044
-0.33158
7.78691
77.0297
-0.522898
8.11028
75.733
-0.98724
7.84544
74.6318
-1.63542
6.80599
73.7596
-1.88531
4.92139
73.0963
-1.0682
2.55289
72.6281
-0.520894
72.3923
-0.369918
0.583324
34.007
0.00143182
1.11994
33.9228
0.00601392
1.56466
33.7601
0.0142608
1.87811
33.5291
0.0257951
2.02836
33.2446
0.040634
1.99362
32.9268
0.0592544
1.76671
32.6019
0.0826556
1.36402
32.3034
0.112124
0.846017
32.0716
0.14731
19.6309
31.9529
0.176894
63.2861
34.612
-2.04146
61.1138
39.7438
-0.648616
60.1816
44.9126
-0.2753
59.6012
49.9655
-0.147518
59.3375
54.8018
-0.0916353
59.3708
59.3695
-0.066747
59.683
63.6482
-0.0567006
60.2641
67.6351
-0.0545409
61.1148
71.3353
-0.0565249
62.2455
74.7543
-0.0611808
63.6768
77.8904
-0.0675936
65.4368
80.7291
-0.0754474
67.5596
83.2364
-0.084473
70.0776
85.3501
-0.0944587
73.0055
86.9707
-0.105654
76.3097
87.9546
-0.118963
79.8557
88.1162
-0.136056
83.3349
87.2549
-0.163682
86.2134
85.2328
-0.226046
44.3607
82.1216
-0.402906
2.65979
80.2326
-0.688195
4.29063
79.7597
-0.585213
5.57985
79.0035
-0.608001
6.49013
78.1348
-0.847454
7.00908
77.3041
-1.34824
6.9733
76.6004
-1.94527
6.14264
76.0438
-1.90039
4.45327
75.577
-0.942633
2.31704
75.236
-0.48868
75.0618
-0.353407
0.4991
35.087
0.0170555
0.957254
35.0388
0.0216687
1.33368
34.9461
0.0300165
1.59362
34.8149
0.0418531
1.71049
34.6539
0.0574232
1.66872
34.4743
0.0774938
1.46819
34.2913
0.103426
1.13223
34.1237
0.136834
0.727322
33.9947
0.177202
22.2901
33.9339
0.210674
68.4178
36.6855
-2.38277
66.2826
41.4227
-0.743663
65.2345
46.221
-0.309298
64.4375
50.919
-0.157423
63.9051
55.4232
-0.0891638
63.6496
59.6816
-0.0567016
63.6698
63.6684
-0.0417469
63.9643
67.3745
-0.035525
64.5337
70.7987
-0.0337585
65.3816
73.9401
-0.0348912
66.5155
76.7932
-0.0378157
67.9441
79.3417
-0.0419873
69.6733
81.5542
-0.0474161
71.6982
83.3791
-0.054369
73.9894
84.7428
-0.0635238
76.4712
85.5496
-0.0770012
78.9944
85.6926
-0.0993754
81.3128
85.0802
-0.143452
83.1022
83.6889
-0.24602
42.4717
81.6398
-0.518265
2.18684
80.4479
-0.929196
3.53451
80.1768
-0.857807
4.71108
79.7434
-0.925129
5.65945
79.2546
-1.2151
6.30539
78.8109
-1.74184
6.4167
78.4602
-2.22734
5.67587
78.1748
-1.79603
4.11227
77.8804
-0.833251
2.14278
77.6574
-0.461171
77.5414
-0.337362
0.450913
36.1709
0.0302565
0.864574
36.1569
0.0351415
1.20253
36.1304
0.0439659
1.43253
36.0932
0.0565765
1.53095
36.047
0.0734151
1.4857
35.9946
0.0955256
1.30059
35.9396
0.124624
1.00328
35.8876
0.162634
0.66643
35.8476
0.208702
25.0417
35.8359
0.245921
73.155
38.7076
-2.75881
71.081
43.1559
-0.84911
69.9325
47.6741
-0.350932
68.9417
52.0828
-0.173944
68.1635
56.2947
-0.0936044
67.6364
60.2627
-0.0545428
67.3759
63.9629
-0.0355259
67.3885
67.3871
-0.0264136
67.6752
70.5334
-0.022467
68.2347
73.4013
-0.021608
69.064
75.986
-0.0226345
70.1566
78.274
-0.0250505
71.4982
80.2411
-0.029082
73.0618
81.8504
-0.0350977
74.7963
83.053
-0.0443468
76.6142
83.7921
-0.0601785
78.3821
84.0147
-0.0896229
79.9216
83.6915
-0.150519
81.053
82.8487
-0.291307
41.2798
81.6085
-0.657261
1.91577
80.916
-1.20201
3.10108
80.7913
-1.16949
4.22228
80.6057
-1.28674
5.21582
80.4317
-1.6277
5.95465
80.3276
-2.15439
6.13127
80.2839
-2.4274
5.38148
80.2086
-1.59224
3.88924
80.0667
-0.746808
2.02685
79.951
-0.435975
79.8891
-0.320917
0.436892
37.2316
0.0421592
0.838093
37.2519
0.0474761
1.16525
37.2918
0.0570335
1.38642
37.3486
0.0707443
1.47854
37.4175
0.0892317
1.43066
37.4919
0.113812
1.24855
37.5639
0.146536
0.963316
37.6262
0.189577
0.654735
37.6745
0.24154
27.9135
37.7123
0.282432
77.6033
40.7277
-3.17522
75.5992
44.976
-0.966902
74.3412
49.2898
-0.399337
73.1536
53.4646
-0.195139
72.1315
57.419
-0.102006
71.3366
61.1134
-0.0565277
70.8
64.5323
-0.0337603
70.5348
67.6737
-0.0224679
70.5432
70.5417
-0.0168842
70.8194
73.1401
-0.0148131
71.352
75.4683
-0.0149781
72.1238
77.5191
-0.0166885
73.1075
79.2774
-0.0203094
74.2644
80.7201
-0.0264559
75.5354
81.8194
-0.0370258
76.8368
82.5475
-0.056499
78.0589
82.887
-0.0940499
79.0788
82.8441
-0.172474
79.8128
82.4671
-0.352321
40.5874
81.8676
-0.81665
1.79102
81.5589
-1.50767
2.91547
81.5551
-1.52436
4.04835
81.5859
-1.69817
5.11167
81.6973
-2.08292
5.91091
81.8968
-2.54993
6.05602
82.1062
-2.46108
5.23953
82.1884
-1.36179
3.77355
82.1847
-0.679683
1.96493
82.168
-0.410877
82.1568
-0.303145
0.457149
38.2404
0.0535309
0.878
38.2971
0.0593896
1.22208
38.4078
0.069856
1.45534
38.5654
0.0848953
1.55291
38.7584
0.105297
1.50268
38.9704
0.132632
1.3108
39.1815
0.169236
1.01161
39.3701
0.217376
0.692605
39.5177
0.274724
30.9289
39.6142
0.318495
81.8516
42.7905
-3.6379
79.9129
46.927
-1.09936
78.516
51.1044
-0.455
77.1081
55.0922
-0.220248
75.8258
58.8143
-0.113434
74.7555
62.2441
-0.0611845
73.9414
65.3801
-0.0348939
73.4027
68.2332
-0.0216098
73.1415
70.8178
-0.014814
73.1476
73.146
-0.0121233
73.4029
75.2244
-0.0119627
73.882
77.0531
-0.0134661
74.5503
78.6256
-0.0171455
75.3636
79.9307
-0.0240281
76.2635
80.9561
-0.0366499
77.1762
81.6952
-0.0605036
78.016
82.1544
-0.107125
78.7018
82.3629
-0.20455
79.2133
82.3825
-0.426571
40.2787
82.3189
-0.99754
1.78713
82.334
-1.8492
2.94633
82.4428
-1.92821
4.15975
82.6812
-2.16137
5.31119
83.0605
-2.55881
6.12032
83.5224
-2.84776
6.13823
83.9221
-2.26802
5.23576
84.1429
-1.16336
3.75693
84.2727
-0.622927
1.95372
84.3534
-0.383531
84.393
-0.282841
0.513825
39.1658
0.0649226
0.988677
39.263
0.0714006
1.37971
39.4531
0.0829078
1.64829
39.725
0.0994322
1.76495
40.0604
0.121915
1.71379
40.4331
0.152134
1.49942
40.8095
0.192613
1.15913
41.1513
0.245422
0.789165
41.4216
0.306601
34.1051
41.596
0.350095
85.9881
44.9429
-4.14966
84.0903
49.0684
-1.24827
82.5038
53.1766
-0.517647
80.8302
57.0141
-0.248853
79.2555
60.5156
-0.12711
77.8916
63.6753
-0.0675982
76.7945
66.514
-0.0378194
75.9873
69.0625
-0.0226373
75.4697
71.3504
-0.01498
75.2259
73.4012
-0.0119637
75.2316
75.23
-0.0116627
75.4545
76.8435
-0.0132229
75.8554
78.2419
-0.0173217
76.3891
79.4221
-0.0253735
77.0026
80.383
-0.0405137
77.6354
81.1318
-0.0693271
78.2245
81.6918
-0.126194
78.7214
82.1107
-0.244756
79.1496
82.4672
-0.512884
40.2939
82.8756
-1.19681
1.89587
83.1897
-2.21426
3.18477
83.4135
-2.37151
4.53902
83.8587
-2.65052
5.77313
84.4857
-2.97937
6.52001
85.1636
-2.91583
6.35902
85.7081
-1.9195
5.3655
86.0851
-1.00466
3.83771
86.3609
-0.567057
1.99324
86.5489
-0.351744
86.6449
-0.258805
0.611069
39.9714
0.0767865
1.17872
40.1152
0.0839485
1.65158
40.3971
0.096589
1.9837
40.8032
0.114695
2.1377
41.3094
0.139319
2.0902
41.8795
0.172385
1.84118
42.4644
0.21643
1.42942
43.0046
0.272843
0.963587
43.4379
0.335103
37.4521
43.7208
0.370119
90.1135
47.243
-4.70719
88.1985
51.4849
-1.4136
86.3414
55.5938
-0.58695
84.3317
59.3038
-0.280567
82.4153
62.5744
-0.142417
80.7303
65.4353
-0.0754529
79.343
67.9425
-0.041992
78.2753
70.1549
-0.0250543
77.5206
72.1221
-0.0166915
77.0546
73.8803
-0.0134682
76.8451
75.4528
-0.013224
76.8529
76.8512
-0.015176
77.0357
78.0791
-0.0200845
77.35
79.1373
-0.0296305
77.7513
80.0293
-0.0475328
78.1954
80.7697
-0.0817533
78.6434
81.3936
-0.149658
79.0779
81.9666
-0.290647
79.5581
82.5927
-0.60564
40.6079
83.4144
-1.39237
2.11965
84.0102
-2.53754
3.63003
84.3599
-2.78736
5.16598
85.0146
-3.06436
6.45109
85.869
-3.1835
7.06451
86.7335
-2.65127
6.736
87.4462
-1.57047
5.64133
88.024
-0.87009
4.02569
88.4794
-0.505798
2.08926
88.799
-0.314032
88.9645
-0.230233
0.754824
40.6146
0.0895405
1.46064
40.8121
0.0974513
2.05769
41.2014
0.11128
2.48991
41.7675
0.130992
2.70782
42.4828
0.157704
2.67511
43.3025
0.193399
2.38135
44.1607
0.240369
1.8627
44.97
0.298587
1.24651
45.6311
0.357499
40.9743
46.0677
0.368467
94.3555
49.7773
-5.29797
92.3073
54.3086
-1.59218
90.0514
58.4881
-0.66177
87.6023
62.0674
-0.314714
85.2761
65.0598
-0.159247
83.2376
67.558
-0.0844796
81.5554
69.6716
-0.0474219
80.2425
71.4965
-0.029087
79.2788
73.1058
-0.0203136
78.6271
74.5485
-0.0171489
78.2435
75.8536
-0.017324
78.0809
77.0338
-0.0200858
78.0938
78.0919
-0.0261671
78.242
79.0262
-0.0373551
78.4918
79.8376
-0.0578969
78.8194
80.5397
-0.0972108
79.2164
81.1721
-0.175354
79.7039
81.8159
-0.336774
80.3798
82.607
-0.690054
41.2038
83.735
-1.53259
2.46931
84.5667
-2.67625
4.2848
85.0649
-3.0085
6.0204
85.9477
-3.19862
7.31556
87.0406
-2.98986
7.77718
88.1312
-2.15584
7.31377
89.1146
-1.28025
6.09681
89.9702
-0.740742
4.34523
90.6651
-0.435476
2.25479
91.1587
-0.26936
91.4155
-0.196389
0.952287
41.0455
0.103642
1.84993
41.304
0.112346
2.62381
41.8172
0.127384
3.20521
42.5727
0.148638
3.52753
43.5439
0.177268
3.53328
44.6823
0.215201
3.19064
45.9063
0.264183
2.52384
47.0934
0.322031
1.68304
48.0874
0.371524
44.6839
48.7448
0.335832
98.8868
52.7019
-5.89803
96.4869
57.7571
-1.77825
93.6307
62.0641
-0.739679
90.5947
65.4536
-0.350235
87.7743
68.0568
-0.177064
85.3512
70.076
-0.0944664
83.3803
71.6965
-0.054376
81.8517
73.06
-0.0351039
80.7215
74.2625
-0.0264614
79.9321
75.3617
-0.0240328
79.4237
76.3871
-0.0253773
79.139
77.348
-0.0296333
79.0281
78.24
-0.0373566
79.0533
79.0513
-0.0502574
79.1939
79.7705
-0.072907
79.4518
80.398
-0.115664
79.8602
80.9645
-0.200371
80.495
81.5558
-0.374281
81.5078
82.3378
-0.743331
42.0354
83.5602
-1.55558
2.96756
84.5192
-2.49335
5.1676
85.2092
-2.83143
7.11328
86.388
-2.8711
8.40609
87.8189
-2.42662
8.76063
89.293
-1.66067
8.16937
90.6962
-1.02188
6.79175
91.9466
-0.603719
4.83878
92.9722
-0.354724
2.51165
93.703
-0.217157
94.0836
-0.15651
1.21082
41.2065
0.119618
2.36316
41.5318
0.129138
3.37925
42.183
0.145339
4.17649
43.1557
0.167991
4.66591
44.4337
0.198235
4.75725
45.9752
0.237858
4.37776
47.6921
0.287842
3.51785
49.4245
0.343499
2.34046
50.929
0.377306
48.641
51.9228
0.271159
103.942
56.3141
-6.48259
100.794
62.21
-1.96527
97.0201
66.6385
-0.817997
93.1979
69.6611
-0.385855
89.7935
71.6566
-0.195074
86.9716
73.0038
-0.105663
84.7439
73.9877
-0.0635321
83.0542
74.7944
-0.0443544
81.8207
75.5335
-0.0370328
80.9576
76.2615
-0.0366562
80.3846
77.0005
-0.0405191
80.031
77.7492
-0.0475374
79.8394
78.4896
-0.0579002
79.7725
79.1917
-0.0729089
79.8213
79.8192
-0.096741
80.0183
80.3412
-0.139534
80.4515
80.7552
-0.223254
81.277
81.1247
-0.393957
82.7302
81.6282
-0.743384
42.9944
82.5901
-1.4361
3.65756
83.4963
-2.04018
6.34645
84.461
-2.26901
8.54418
86.0986
-2.20235
9.88017
88.0915
-1.78117
10.1639
90.1848
-1.23462
9.41973
92.1994
-0.771401
7.81735
94.0041
-0.456905
5.5696
95.4844
-0.264613
2.89225
96.5376
-0.157127
97.0852
-0.109424
1.53612
41.0347
0.138079
3.01434
41.428
0.148409
4.35201
42.223
0.165653
5.45447
43.4311
0.189445
6.20734
45.0594
0.220858
6.47418
47.0941
0.26149
6.11013
49.4673
0.311619
5.02241
52.0003
0.364329
3.3342
54.3334
0.379251
53.0323
55.9063
0.19015
109.838
61.2074
-7.0538
105.222
68.3572
-2.15172
100.043
72.6953
-0.894168
95.1934
74.9286
-0.419469
91.1407
75.922
-0.212818
87.9555
76.3079
-0.118973
85.5506
76.4694
-0.0770109
83.7932
76.6123
-0.0601878
82.5488
76.8348
-0.0565077
81.6966
77.1742
-0.0605118
81.1333
77.6333
-0.0693347
80.7714
78.1933
-0.08176
80.5415
78.8171
-0.0972165
80.4
79.4495
-0.115669
80.3433
80.016
-0.139537
80.4324
80.43
-0.177027
80.821
80.6156
-0.247913
81.7805
80.5581
-0.392461
83.6921
80.397
-0.6797
43.9006
80.5441
-1.19319
4.62223
81.13
-1.50879
7.98403
82.5472
-1.60387
10.5371
84.9335
-1.51588
11.9735
87.8075
-1.21899
12.1785
90.804
-0.845465
11.2243
93.6747
-0.525985
9.29771
96.2353
-0.305027
6.62278
98.3259
-0.166736
3.43987
99.8081
-0.0877131
100.577
-0.0520353
1.92948
40.466
0.159767
3.80936
40.9211
0.170847
5.56008
41.8501
0.188941
7.08274
43.2878
0.213486
8.24204
45.2814
0.245453
8.84741
47.8783
0.286314
8.6431
51.0883
0.336185
7.35551
54.7912
0.386755
4.90714
58.5412
0.386362
58.3334
61.2853
0.127445
116.988
68.7324
-7.68141
109.56
77.5028
-2.34441
102.276
80.9237
-0.961961
96.1868
81.4624
-0.445805
91.5266
80.8104
-0.228872
88.117
79.8539
-0.136068
85.6935
78.9925
-0.0993869
84.0158
78.3801
-0.0896341
82.8882
78.0568
-0.0940608
82.1557
78.0139
-0.107136
81.6932
78.2223
-0.126204
81.3952
78.6411
-0.149668
81.1739
79.214
-0.175363
80.9664
79.8578
-0.200379
80.7574
80.449
-0.22326
80.618
80.8185
-0.247917
80.7635
80.7609
-0.289828
81.6194
80.0832
-0.381172
83.8392
78.7442
-0.566908
44.4866
77.1629
-0.872355
6.03938
76.9244
-0.999443
10.3704
79.1747
-1.01571
13.4111
82.7828
-0.934674
14.97
86.9635
-0.737318
15.0491
91.2176
-0.499691
13.785
95.2348
-0.29784
11.3883
98.7858
-0.153889
8.10491
101.669
-0.0596583
4.20909
103.707
-0.00306408
104.763
0.0234586
2.38457
39.4435
0.185585
4.73838
39.9435
0.197303
6.99776
40.9733
0.215971
9.07639
42.5946
0.240745
10.8389
44.9069
0.272468
12.0574
48.0555
0.312665
12.346
52.2221
0.362156
11.1055
57.5441
0.412921
7.65126
63.7778
0.409337
65.7805
69.2846
0.126354
125.758
82.6809
-8.54669
112.981
92.1078
-2.53967
102.815
92.0678
-0.997692
95.5348
89.1942
-0.452511
90.5701
86.0172
-0.24169
87.2556
83.333
-0.163696
85.0811
81.3109
-0.143466
83.6925
79.9195
-0.150533
82.8452
79.0766
-0.172487
82.3641
78.6996
-0.204564
82.112
78.7191
-0.244771
81.9682
79.0756
-0.290661
81.8176
79.7015
-0.336788
81.5577
80.4925
-0.374295
81.1268
81.2743
-0.39397
80.5604
81.7777
-0.39247
80.0858
81.6165
-0.381178
80.2804
80.2775
-0.388838
82.2579
77.2149
-0.448123
44.2481
72.3582
-0.556444
8.28961
70.0657
-0.569738
13.9785
74.0192
-0.55068
17.5917
79.6381
-0.482258
19.2242
85.6823
-0.358326
19.0663
91.5905
-0.217393
17.3359
97.0597
-0.0950871
14.2714
101.851
-0.000960573
10.1428
105.73
0.0672886
5.26549
108.471
0.112406
109.894
0.134979
2.8845
37.9288
0.216546
5.76827
38.4455
0.228767
8.61897
39.5164
0.247655
11.3888
41.2221
0.272031
13.9875
43.7078
0.302581
16.224
47.2243
0.341158
17.6681
52.2066
0.389714
17.3391
59.3854
0.443082
13.1581
69.7379
0.453975
79.1768
82.722
0.217882
135.185
116.285
-9.84319
112.941
115.999
-2.6126
99.9411
105.964
-0.923879
92.3579
97.1934
-0.416948
87.8859
90.7481
-0.258397
85.2334
86.2115
-0.226062
83.6897
83.1002
-0.246037
82.8496
81.051
-0.291325
82.4682
79.8107
-0.352339
82.3836
79.211
-0.426591
82.4685
79.1473
-0.512906
82.5941
79.5557
-0.605663
82.6086
80.3773
-0.690077
82.3395
81.5052
-0.743355
81.6302
82.7275
-0.743407
80.3992
83.6892
-0.67972
78.7467
83.8361
-0.566922
77.2179
82.2546
-0.44813
77.4012
77.3976
-0.366051
41.9556
66.9966
-0.317781
12.2431
58.917
-0.267878
19.5974
66.8956
-0.235274
23.6359
75.7702
-0.174592
25.1324