/*--------------------------------*- C++ -*----------------------------------*\
| =========                 |                                                 |
| \\      /  F ield         | OpenFOAM: The Open Source CFD Toolbox           |
|  \\    /   O peration     | Version:  2.1.0                                 |
|   \\  /    A nd           | Web:      www.OpenFOAM.org                      |
|    \\/     M anipulation  |                                                 |
\*---------------------------------------------------------------------------*/
FoamFile
{
    version     2.0;
    format      ascii;
    class       volScalarField;
    location    "24090";
    object      so;
}
// * * * * * * * * * * * * * * * * * * * * * * * * * * * * * * * * * * * * * //

dimensions      [0 0 0 0 0 0 0];

internalField   nonuniform List<scalar> 
8000
(
0.293111
0.307079
0.324036
0.34193
0.359674
0.37674
0.392907
0.408114
0.422382
0.435733
0.448196
0.459809
0.470624
0.480706
0.490122
0.498935
0.507205
0.515003
0.522399
0.529454
0.536229
0.542782
0.549171
0.555457
0.561706
0.567997
0.574421
0.581099
0.588192
0.595926
0.604636
0.614839
0.627395
0.643752
0.666176
0.697087
0.737222
0.776412
0.795685
0.799669
0.307077
0.319551
0.334828
0.351176
0.367618
0.383641
0.398996
0.413589
0.427392
0.440389
0.452577
0.463975
0.474624
0.484576
0.493889
0.502616
0.510819
0.518564
0.525917
0.532938
0.539682
0.546205
0.552561
0.558808
0.565007
0.571231
0.57757
0.584142
0.591108
0.598699
0.607259
0.617327
0.629797
0.646173
0.66877
0.699901
0.739838
0.777856
0.796017
0.799697
0.324035
0.334828
0.348209
0.362788
0.377716
0.392506
0.406895
0.420752
0.433991
0.446552
0.458401
0.469534
0.479973
0.489755
0.498926
0.507531
0.515631
0.52329
0.530568
0.537519
0.544196
0.550647
0.556922
0.56307
0.569147
0.57522
0.581373
0.587721
0.594428
0.601734
0.609999
0.619789
0.632041
0.648312
0.670958
0.702181
0.741871
0.778948
0.796268
0.799719
0.34193
0.351176
0.362788
0.375676
0.389125
0.402692
0.416115
0.429223
0.441882
0.453994
0.465493
0.476351
0.486567
0.496166
0.505176
0.513642
0.521625
0.529184
0.536373
0.543242
0.549835
0.556196
0.562364
0.56838
0.574288
0.580144
0.586023
0.592034
0.598344
0.605204
0.613
0.622345
0.634224
0.650255
0.672834
0.704055
0.743488
0.779801
0.796466
0.799737
0.359674
0.367618
0.377716
0.389125
0.401258
0.413729
0.426276
0.438696
0.450826
0.462536
0.473729
0.484346
0.494365
0.503789
0.512641
0.520977
0.528852
0.536322
0.543435
0.550236
0.556762
0.563046
0.569117
0.575001
0.580725
0.586326
0.59186
0.597423
0.603177
0.609391
0.616499
0.625182
0.636499
0.652138
0.674539
0.705692
0.744875
0.780537
0.796641
0.799753
0.37674
0.383641
0.392506
0.402692
0.413729
0.425279
0.437082
0.448928
0.460641
0.472062
0.483055
0.493515
0.503394
0.512679
0.521414
0.529656
0.537463
0.544886
0.551973
0.55876
0.565277
0.571547
0.577583
0.58339
0.588969
0.594323
0.599471
0.604475
0.609482
0.614784
0.62089
0.628608
0.63911
0.654174
0.676286
0.707317
0.746254
0.781289
0.796825
0.79977
0.392907
0.398996
0.406895
0.416115
0.426276
0.437081
0.448298
0.459731
0.471203
0.482533
0.49352
0.503973
0.513805
0.523037
0.531732
0.539959
0.54778
0.555249
0.562413
0.569304
0.575944
0.582343
0.588495
0.594376
0.599945
0.605146
0.609928
0.614282
0.618305
0.6223
0.626897
0.633163
0.642465
0.656701
0.678396
0.709242
0.747903
0.782207
0.797049
0.799791
0.408114
0.413589
0.420751
0.429223
0.438696
0.448928
0.459731
0.470951
0.482444
0.494023
0.505372
0.516057
0.52602
0.535346
0.54414
0.552495
0.560491
0.568191
0.575641
0.582876
0.589912
0.596743
0.603338
0.609634
0.615526
0.62087
0.625486
0.629196
0.631935
0.633944
0.636039
0.63991
0.647298
0.660272
0.681339
0.711879
0.750151
0.783444
0.797341
0.799817
0.422381
0.427392
0.433991
0.441882
0.450825
0.46064
0.471203
0.482444
0.494333
0.506792
0.519376
0.530763
0.541162
0.550842
0.560001
0.568786
0.577305
0.585641
0.593856
0.601989
0.61005
0.618023
0.625859
0.633456
0.640631
0.647078
0.652331
0.655774
0.656807
0.655293
0.652303
0.651278
0.655011
0.66577
0.685765
0.715718
0.753332
0.785115
0.79771
0.799848
0.435733
0.440388
0.446552
0.453993
0.462535
0.472062
0.482533
0.494023
0.506792
0.521469
0.53899
0.552002
0.563466
0.574153
0.58444
0.594571
0.604728
0.615056
0.625686
0.636736
0.648292
0.660368
0.672827
0.685296
0.697084
0.707208
0.714492
0.717596
0.714825
0.704465
0.687178
0.672044
0.667403
0.674073
0.692249
0.721167
0.757671
0.787237
0.798143
0.799882
0.448196
0.452576
0.458401
0.465493
0.473729
0.483054
0.49352
0.505372
0.519376
0.53899
0.773932
0.780908
0.77962
0.779533
0.780208
0.781353
0.782797
0.784426
0.78615
0.787891
0.789582
0.791159
0.792566
0.793752
0.794675
0.795295
0.795546
0.795255
0.793867
0.789342
0.693786
0.682253
0.67782
0.683367
0.700375
0.728199
0.76311
0.789679
0.798596
0.799915
0.459809
0.463975
0.469534
0.476351
0.484345
0.493515
0.503973
0.516057
0.530763
0.552002
0.780908
0.798962
0.799338
0.799299
0.799306
0.799347
0.79941
0.799482
0.799557
0.79963
0.799695
0.799752
0.799798
0.799834
0.79986
0.799875
0.799877
0.79986
0.799802
0.799642
0.70145
0.691301
0.687743
0.693314
0.709596
0.736495
0.769309
0.792189
0.799015
0.799944
0.470624
0.474624
0.479972
0.486567
0.494364
0.503394
0.513805
0.52602
0.541162
0.563466
0.77962
0.799338
0.799973
0.799984
0.799984
0.799985
0.799986
0.799988
0.79999
0.799992
0.799993
0.799995
0.799996
0.799996
0.799997
0.799997
0.799997
0.799997
0.799996
0.799993
0.709888
0.7005
0.697848
0.703733
0.719593
0.745632
0.775766
0.794493
0.799359
0.799965
0.480706
0.484576
0.489754
0.496166
0.503788
0.512679
0.523037
0.535346
0.550841
0.574153
0.779533
0.799299
0.799984
0.799999
0.8
0.8
0.8
0.8
0.8
0.8
0.8
0.8
0.8
0.8
0.8
0.8
0.8
0.8
0.8
0.8
0.718926
0.710016
0.708176
0.714398
0.730102
0.755135
0.781956
0.796392
0.799612
0.79998
0.490122
0.493889
0.498926
0.505175
0.512641
0.521414
0.531732
0.54414
0.560001
0.58444
0.780208
0.799306
0.799984
0.8
0.8
0.8
0.8
0.8
0.8
0.8
0.8
0.8
0.8
0.8
0.8
0.8
0.8
0.8
0.8
0.8
0.728387
0.719872
0.718693
0.725266
0.740837
0.764506
0.787432
0.797801
0.799781
0.799989
0.498934
0.502616
0.50753
0.513641
0.520976
0.529656
0.539958
0.552495
0.568786
0.594571
0.781353
0.799347
0.799985
0.8
0.8
0.8
0.8
0.8
0.8
0.8
0.8
0.8
0.8
0.8
0.8
0.8
0.8
0.8
0.8
0.8
0.738067
0.729967
0.729335
0.736184
0.751467
0.773288
0.791887
0.798751
0.799884
0.799995
0.507204
0.510818
0.515631
0.521625
0.528852
0.537462
0.547779
0.560491
0.577305
0.604728
0.782797
0.79941
0.799986
0.8
0.8
0.8
0.8
0.8
0.8
0.8
0.8
0.8
0.8
0.8
0.8
0.8
0.8
0.8
0.8
0.8
0.747714
0.74011
0.739925
0.74692
0.761662
0.781104
0.79518
0.799335
0.799942
0.799997
0.515003
0.518564
0.52329
0.529184
0.536321
0.544886
0.555249
0.56819
0.585641
0.615056
0.784426
0.799482
0.799988
0.8
0.8
0.8
0.8
0.8
0.8
0.8
0.8
0.8
0.8
0.8
0.8
0.8
0.8
0.8
0.8
0.8
0.757052
0.750062
0.750238
0.757245
0.771145
0.787652
0.797366
0.799667
0.799972
0.799999
0.522399
0.525917
0.530568
0.536373
0.543435
0.551972
0.562412
0.575641
0.593856
0.625686
0.78615
0.799557
0.79999
0.8
0.8
0.8
0.8
0.8
0.8
0.8
0.8
0.8
0.8
0.8
0.8
0.8
0.8
0.8
0.8
0.8
0.765837
0.759596
0.76009
0.766987
0.779669
0.79269
0.798667
0.799842
0.799987
0.799999
0.529454
0.532937
0.537519
0.543241
0.550235
0.558759
0.569303
0.582876
0.601989
0.636735
0.787891
0.79963
0.799992
0.8
0.8
0.8
0.8
0.8
0.8
0.8
0.8
0.8
0.8
0.8
0.8
0.8
0.8
0.8
0.8
0.8
0.773911
0.768564
0.769373
0.776001
0.786929
0.796124
0.79937
0.799928
0.799994
0.8
0.536229
0.539681
0.544195
0.549835
0.556762
0.565277
0.575944
0.589911
0.61005
0.648292
0.789582
0.799695
0.799993
0.8
0.8
0.8
0.8
0.8
0.8
0.8
0.8
0.8
0.8
0.8
0.8
0.8
0.8
0.8
0.8
0.8
0.781185
0.776881
0.777988
0.784034
0.792552
0.79815
0.79972
0.799969
0.799998
0.8
0.542782
0.546205
0.550647
0.556196
0.563046
0.571547
0.582343
0.596742
0.618023
0.660367
0.791159
0.799752
0.799995
0.8
0.8
0.8
0.8
0.8
0.8
0.8
0.8
0.8
0.8
0.8
0.8
0.8
0.8
0.8
0.8
0.8
0.787522
0.784387
0.785671
0.790626
0.796306
0.799191
0.799881
0.799987
0.799999
0.8
0.549171
0.552561
0.556921
0.562364
0.569117
0.577583
0.588495
0.603338
0.625859
0.672827
0.792566
0.799798
0.799996
0.8
0.8
0.8
0.8
0.8
0.8
0.8
0.8
0.8
0.8
0.8
0.8
0.8
0.8
0.8
0.8
0.8
0.792641
0.790692
0.791891
0.795291
0.798393
0.79967
0.799952
0.799995
0.8
0.8
0.555457
0.558807
0.563069
0.568379
0.575001
0.58339
0.594376
0.609633
0.633456
0.685295
0.793752
0.799834
0.799996
0.8
0.8
0.8
0.8
0.8
0.8
0.8
0.8
0.8
0.8
0.8
0.8
0.8
0.8
0.8
0.8
0.8
0.796246
0.79528
0.796134
0.797983
0.79937
0.799873
0.799981
0.799998
0.8
0.8
0.561706
0.565006
0.569147
0.574288
0.580725
0.588969
0.599944
0.615526
0.640631
0.697084
0.794675
0.79986
0.799997
0.8
0.8
0.8
0.8
0.8
0.8
0.8
0.8
0.8
0.8
0.8
0.8
0.8
0.8
0.8
0.8
0.8
0.798353
0.797987
0.798444
0.799244
0.799772
0.799953
0.799993
0.799999
0.8
0.8
0.567996
0.57123
0.575219
0.580144
0.586326
0.594323
0.605145
0.62087
0.647078
0.707208
0.795295
0.799875
0.799997
0.8
0.8
0.8
0.8
0.8
0.8
0.8
0.8
0.8
0.8
0.8
0.8
0.8
0.8
0.8
0.8
0.8
0.799371
0.799264
0.799456
0.799744
0.799922
0.799983
0.799997
0.8
0.8
0.8
0.574421
0.577569
0.581372
0.586022
0.59186
0.59947
0.609928
0.625486
0.652331
0.714492
0.795546
0.799877
0.799997
0.8
0.8
0.8
0.8
0.8
0.8
0.8
0.8
0.8
0.8
0.8
0.8
0.8
0.8
0.8
0.8
0.8
0.799788
0.799763
0.799829
0.799919
0.799974
0.799994
0.799999
0.8
0.8
0.8
0.581099
0.584141
0.58772
0.592034
0.597423
0.604474
0.614282
0.629196
0.655774
0.717596
0.795255
0.79986
0.799997
0.8
0.8
0.8
0.8
0.8
0.8
0.8
0.8
0.8
0.8
0.8
0.8
0.8
0.8
0.8
0.8
0.8
0.799936
0.799931
0.799951
0.799976
0.799992
0.799998
0.8
0.8
0.8
0.8
0.588192
0.591107
0.594428
0.598344
0.603176
0.609482
0.618305
0.631935
0.656806
0.714825
0.793867
0.799802
0.799996
0.8
0.8
0.8
0.8
0.8
0.8
0.8
0.8
0.8
0.8
0.8
0.8
0.8
0.8
0.8
0.8
0.8
0.799983
0.799982
0.799987
0.799993
0.799997
0.799999
0.8
0.8
0.8
0.8
0.595926
0.598699
0.601734
0.605203
0.609391
0.614784
0.6223
0.633944
0.655293
0.704465
0.789342
0.799642
0.799993
0.8
0.8
0.8
0.8
0.8
0.8
0.8
0.8
0.8
0.8
0.8
0.8
0.8
0.8
0.8
0.8
0.8
0.799996
0.799996
0.799997
0.799998
0.799999
0.8
0.8
0.8
0.8
0.8
0.604635
0.607259
0.609998
0.613
0.616499
0.62089
0.626896
0.636039
0.652303
0.687178
0.693785
0.70145
0.709888
0.718925
0.728387
0.738067
0.747714
0.757052
0.765837
0.773911
0.781185
0.787522
0.792641
0.796246
0.798353
0.799371
0.799788
0.799936
0.799983
0.799996
0.799999
0.799999
0.799999
0.799999
0.8
0.8
0.8
0.8
0.8
0.8
0.614839
0.617327
0.619789
0.622344
0.625181
0.628607
0.633163
0.63991
0.651277
0.672043
0.682253
0.6913
0.7005
0.710016
0.719872
0.729966
0.74011
0.750062
0.759596
0.768564
0.776881
0.784387
0.790692
0.79528
0.797987
0.799264
0.799763
0.799931
0.799982
0.799996
0.799999
0.8
0.8
0.8
0.8
0.8
0.8
0.8
0.8
0.8
0.627394
0.629797
0.632041
0.634224
0.636499
0.63911
0.642465
0.647298
0.65501
0.667403
0.67782
0.687743
0.697848
0.708176
0.718693
0.729335
0.739925
0.750238
0.76009
0.769373
0.777988
0.785671
0.791891
0.796134
0.798444
0.799456
0.799829
0.799951
0.799987
0.799997
0.799999
0.8
0.8
0.8
0.8
0.8
0.8
0.8
0.8
0.8
0.643752
0.646173
0.648312
0.650255
0.652138
0.654174
0.656701
0.660272
0.66577
0.674073
0.683367
0.693313
0.703733
0.714397
0.725266
0.736184
0.74692
0.757245
0.766987
0.776001
0.784034
0.790626
0.795291
0.797983
0.799244
0.799744
0.799919
0.799976
0.799993
0.799998
0.799999
0.8
0.8
0.8
0.8
0.8
0.8
0.8
0.8
0.8
0.666176
0.66877
0.670958
0.672834
0.674539
0.676286
0.678395
0.681339
0.685764
0.692249
0.700374
0.709596
0.719593
0.730102
0.740837
0.751467
0.761662
0.771145
0.779669
0.786929
0.792552
0.796306
0.798392
0.79937
0.799772
0.799922
0.799974
0.799992
0.799997
0.799999
0.8
0.8
0.8
0.8
0.8
0.8
0.8
0.8
0.8
0.8
0.697086
0.6999
0.70218
0.704055
0.705692
0.707317
0.709242
0.711878
0.715718
0.721167
0.728199
0.736495
0.745632
0.755135
0.764506
0.773288
0.781104
0.787652
0.792689
0.796124
0.79815
0.799191
0.79967
0.799873
0.799953
0.799983
0.799994
0.799998
0.799999
0.8
0.8
0.8
0.8
0.8
0.8
0.8
0.8
0.8
0.8
0.8
0.737222
0.739837
0.741871
0.743488
0.744874
0.746253
0.747903
0.750151
0.753332
0.75767
0.76311
0.769309
0.775766
0.781955
0.787432
0.791887
0.79518
0.797366
0.798667
0.79937
0.79972
0.799881
0.799952
0.799981
0.799993
0.799997
0.799999
0.8
0.8
0.8
0.8
0.8
0.8
0.8
0.8
0.8
0.8
0.8
0.8
0.8
0.776412
0.777856
0.778948
0.779801
0.780537
0.781289
0.782207
0.783444
0.785114
0.787237
0.789679
0.792189
0.794493
0.796392
0.797801
0.798751
0.799335
0.799667
0.799842
0.799928
0.799969
0.799987
0.799995
0.799998
0.799999
0.8
0.8
0.8
0.8
0.8
0.8
0.8
0.8
0.8
0.8
0.8
0.8
0.8
0.8
0.8
0.795685
0.796017
0.796268
0.796466
0.796641
0.796825
0.797049
0.797341
0.79771
0.798143
0.798596
0.799015
0.799359
0.799612
0.799781
0.799884
0.799942
0.799972
0.799987
0.799994
0.799998
0.799999
0.8
0.8
0.8
0.8
0.8
0.8
0.8
0.8
0.8
0.8
0.8
0.8
0.8
0.8
0.8
0.8
0.8
0.8
0.799669
0.799697
0.799719
0.799737
0.799753
0.79977
0.799791
0.799817
0.799848
0.799882
0.799915
0.799944
0.799965
0.79998
0.799989
0.799995
0.799997
0.799999
0.799999
0.8
0.8
0.8
0.8
0.8
0.8
0.8
0.8
0.8
0.8
0.8
0.8
0.8
0.8
0.8
0.8
0.8
0.8
0.8
0.8
0.8
0.235074
0.2514
0.272736
0.295622
0.31804
0.339104
0.358529
0.376294
0.392496
0.407282
0.420815
0.433229
0.444636
0.455141
0.464846
0.473856
0.482262
0.490135
0.497549
0.504569
0.511257
0.517671
0.523865
0.529894
0.535814
0.541688
0.547584
0.553584
0.559788
0.566321
0.57334
0.581051
0.589718
0.59974
0.612054
0.629789
0.660272
0.713207
0.773224
0.79736
0.251395
0.266902
0.286399
0.307209
0.327783
0.34736
0.365632
0.38252
0.398064
0.412363
0.425533
0.437668
0.448855
0.459184
0.468747
0.477643
0.485951
0.493739
0.501077
0.508027
0.514646
0.520988
0.527104
0.533044
0.53886
0.54461
0.550361
0.556191
0.562201
0.568522
0.575319
0.582806
0.591255
0.601069
0.613191
0.630836
0.661485
0.714792
0.774231
0.797504
0.272734
0.286398
0.303402
0.321717
0.340112
0.357914
0.374793
0.390611
0.40535
0.419052
0.431768
0.443548
0.454449
0.464543
0.473914
0.48265
0.490813
0.498472
0.50569
0.512523
0.519023
0.525239
0.531216
0.536996
0.542628
0.548163
0.553664
0.559211
0.564909
0.570898
0.577359
0.584522
0.592674
0.602218
0.614096
0.631597
0.662342
0.715948
0.774981
0.797614
0.295622
0.307208
0.321716
0.337597
0.353853
0.369881
0.385344
0.400066
0.41398
0.427064
0.439302
0.4507
0.461287
0.47112
0.480277
0.488821
0.496813
0.504315
0.511384
0.51807
0.52442
0.530472
0.536264
0.541833
0.547216
0.552456
0.557613
0.562766
0.568026
0.573549
0.579542
0.586265
0.594026
0.603231
0.614816
0.632131
0.662924
0.716798
0.775562
0.797703
0.31804
0.327782
0.340111
0.353852
0.368195
0.382611
0.396774
0.410494
0.423659
0.436176
0.447971
0.459007
0.469292
0.478874
0.487813
0.496159
0.503971
0.511308
0.518219
0.524749
0.530934
0.536807
0.542394
0.547718
0.552807
0.55769
0.562417
0.567063
0.571745
0.576644
0.582005
0.58814
0.595392
0.604177
0.615418
0.632515
0.663343
0.717505
0.776086
0.797786
0.339104
0.34736
0.357914
0.369881
0.382611
0.395655
0.40872
0.42161
0.434162
0.446228
0.457679
0.46843
0.478471
0.487842
0.496578
0.50474
0.512387
0.519571
0.526337
0.532723
0.538757
0.54446
0.549846
0.554924
0.5597
0.564188
0.568413
0.57244
0.576386
0.580458
0.584966
0.590311
0.596899
0.605157
0.615992
0.632855
0.663753
0.718287
0.776694
0.797883
0.358528
0.365631
0.374792
0.385344
0.396774
0.40872
0.420928
0.433193
0.445327
0.457141
0.468435
0.479049
0.488953
0.498166
0.506747
0.514766
0.522283
0.529353
0.536014
0.542299
0.548225
0.553803
0.55903
0.563897
0.568384
0.572474
0.576157
0.579461
0.582486
0.585461
0.588787
0.593044
0.59874
0.606321
0.616665
0.633295
0.664351
0.71942
0.777547
0.798014
0.376293
0.38252
0.390611
0.400066
0.410494
0.42161
0.433193
0.445062
0.457047
0.468944
0.480448
0.491179
0.501079
0.510228
0.518729
0.526673
0.534133
0.541162
0.547801
0.554071
0.559984
0.565534
0.570703
0.575456
0.579744
0.583503
0.586665
0.58918
0.591077
0.592564
0.594163
0.596821
0.601241
0.607895
0.617613
0.634024
0.665392
0.721237
0.778813
0.798195
0.392496
0.398064
0.405349
0.41398
0.423659
0.434162
0.445327
0.457047
0.469258
0.481865
0.494446
0.505676
0.515766
0.524986
0.533528
0.541526
0.549071
0.556224
0.563023
0.569485
0.575609
0.581371
0.586732
0.591627
0.595969
0.599638
0.60247
0.604263
0.604827
0.604173
0.602877
0.60276
0.605046
0.610254
0.619084
0.635289
0.667186
0.724117
0.780632
0.798433
0.407282
0.412363
0.419051
0.427064
0.436176
0.446228
0.45714
0.468944
0.481865
0.496494
0.513514
0.525828
0.536391
0.54595
0.554849
0.563281
0.571371
0.579201
0.58682
0.594247
0.601464
0.608424
0.615053
0.621267
0.626971
0.632004
0.636013
0.638277
0.637655
0.632847
0.62369
0.615108
0.611936
0.614139
0.62145
0.637396
0.670091
0.728446
0.783054
0.798717
0.420815
0.425533
0.431768
0.439302
0.447971
0.457678
0.468435
0.480448
0.494446
0.513514
0.765081
0.772685
0.769854
0.768582
0.768328
0.768719
0.769552
0.770698
0.77206
0.773563
0.775139
0.776724
0.778249
0.779636
0.780779
0.781517
0.781561
0.780291
0.776025
0.762992
0.628773
0.62109
0.617437
0.618261
0.624528
0.640491
0.674427
0.734525
0.785985
0.79902
0.433228
0.437668
0.443548
0.450699
0.459007
0.46843
0.479049
0.491179
0.505676
0.525828
0.772685
0.79807
0.79869
0.79853
0.798449
0.798437
0.798475
0.798547
0.798642
0.798748
0.798859
0.798967
0.799067
0.799152
0.799217
0.799251
0.799237
0.799137
0.798843
0.798054
0.634171
0.62604
0.622208
0.622326
0.62823
0.644629
0.680467
0.742455
0.789164
0.799307
0.444635
0.448855
0.454449
0.461286
0.469292
0.478471
0.488953
0.501079
0.515766
0.53639
0.769854
0.79869
0.799935
0.799959
0.799955
0.799954
0.799954
0.799956
0.799959
0.799963
0.799967
0.799971
0.799974
0.799977
0.799979
0.79998
0.79998
0.799977
0.799969
0.799951
0.639709
0.630747
0.626666
0.626468
0.632528
0.649889
0.688513
0.752028
0.792232
0.799547
0.45514
0.459184
0.464543
0.471119
0.478874
0.487841
0.498165
0.510227
0.524985
0.54595
0.768583
0.79853
0.799959
0.799998
0.799999
0.799999
0.799999
0.799999
0.799999
0.799999
0.799999
0.799999
0.799999
0.799999
0.8
0.8
0.8
0.8
0.799999
0.799999
0.645388
0.635517
0.631164
0.630949
0.637494
0.656459
0.698931
0.762615
0.794862
0.799725
0.464845
0.468747
0.473913
0.480276
0.487813
0.496578
0.506747
0.518728
0.533528
0.554848
0.768328
0.798449
0.799955
0.799999
0.8
0.8
0.8
0.8
0.8
0.8
0.8
0.8
0.8
0.8
0.8
0.8
0.8
0.8
0.8
0.8
0.651227
0.640455
0.635901
0.635869
0.643292
0.66468
0.712076
0.773156
0.796863
0.799845
0.473855
0.477643
0.482649
0.488821
0.496158
0.50474
0.514765
0.526673
0.541526
0.56328
0.768719
0.798437
0.799954
0.799999
0.8
0.8
0.8
0.8
0.8
0.8
0.8
0.8
0.8
0.8
0.8
0.8
0.8
0.8
0.8
0.8
0.657282
0.645659
0.641004
0.641401
0.650218
0.675099
0.727966
0.782434
0.798225
0.799918
0.482261
0.48595
0.490813
0.496813
0.503971
0.512386
0.522283
0.534132
0.549071
0.571371
0.769552
0.798475
0.799954
0.799999
0.8
0.8
0.8
0.8
0.8
0.8
0.8
0.8
0.8
0.8
0.8
0.8
0.8
0.8
0.8
0.8
0.663679
0.651281
0.646668
0.647831
0.658744
0.688447
0.745737
0.789564
0.799062
0.799959
0.490135
0.493739
0.498472
0.504315
0.511307
0.51957
0.529352
0.541162
0.556224
0.579201
0.770698
0.798547
0.799956
0.799999
0.8
0.8
0.8
0.8
0.8
0.8
0.8
0.8
0.8
0.8
0.8
0.8
0.8
0.8
0.8
0.8
0.670648
0.657567
0.653209
0.655609
0.669564
0.705438
0.763303
0.794342
0.799534
0.799981
0.497548
0.501077
0.505689
0.511383
0.518219
0.526337
0.536014
0.5478
0.563023
0.58682
0.77206
0.798642
0.799959
0.799999
0.8
0.8
0.8
0.8
0.8
0.8
0.8
0.8
0.8
0.8
0.8
0.8
0.8
0.8
0.8
0.8
0.678586
0.664927
0.661124
0.665407
0.683608
0.726104
0.778059
0.797168
0.79978
0.799991
0.504569
0.508026
0.512522
0.51807
0.524748
0.532723
0.542298
0.554071
0.569485
0.594246
0.773563
0.798748
0.799963
0.799999
0.8
0.8
0.8
0.8
0.8
0.8
0.8
0.8
0.8
0.8
0.8
0.8
0.8
0.8
0.8
0.8
0.688126
0.674
0.671158
0.678167
0.701854
0.748668
0.788401
0.798674
0.799901
0.799996
0.511257
0.514645
0.519023
0.524419
0.530934
0.538757
0.548225
0.559984
0.575608
0.601464
0.775139
0.798859
0.799967
0.799999
0.8
0.8
0.8
0.8
0.8
0.8
0.8
0.8
0.8
0.8
0.8
0.8
0.8
0.8
0.8
0.8
0.70017
0.685718
0.684353
0.695036
0.724544
0.769284
0.794491
0.799412
0.799957
0.799998
0.51767
0.520987
0.525239
0.530471
0.536807
0.54446
0.553803
0.565534
0.581371
0.608424
0.776724
0.798967
0.799971
0.799999
0.8
0.8
0.8
0.8
0.8
0.8
0.8
0.8
0.8
0.8
0.8
0.8
0.8
0.8
0.8
0.8
0.71571
0.701257
0.701929
0.716836
0.749566
0.78433
0.797593
0.799751
0.799982
0.799999
0.523864
0.527103
0.531215
0.536264
0.542393
0.549846
0.55903
0.570702
0.586732
0.615053
0.778249
0.799067
0.799974
0.799999
0.8
0.8
0.8
0.8
0.8
0.8
0.8
0.8
0.8
0.8
0.8
0.8
0.8
0.8
0.8
0.8
0.735116
0.721548
0.72455
0.742474
0.771893
0.79307
0.799012
0.799898
0.799993
0.8
0.529893
0.533043
0.536996
0.541833
0.547718
0.554923
0.563896
0.575455
0.591627
0.621267
0.779636
0.799152
0.799977
0.799999
0.8
0.8
0.8
0.8
0.8
0.8
0.8
0.8
0.8
0.8
0.8
0.8
0.8
0.8
0.8
0.8
0.75672
0.745751
0.750399
0.767192
0.787088
0.797247
0.799612
0.799959
0.799997
0.8
0.535814
0.53886
0.542628
0.547215
0.552806
0.5597
0.568384
0.579744
0.595969
0.62697
0.780779
0.799217
0.799979
0.8
0.8
0.8
0.8
0.8
0.8
0.8
0.8
0.8
0.8
0.8
0.8
0.8
0.8
0.8
0.8
0.8
0.77623
0.769413
0.773809
0.785044
0.794978
0.798981
0.799852
0.799984
0.799999
0.8
0.541687
0.54461
0.548163
0.552456
0.55769
0.564187
0.572473
0.583503
0.599637
0.632004
0.781517
0.799251
0.79998
0.8
0.8
0.8
0.8
0.8
0.8
0.8
0.8
0.8
0.8
0.8
0.8
0.8
0.8
0.8
0.8
0.8
0.789525
0.786517
0.789176
0.794447
0.798256
0.799638
0.799944
0.799994
0.8
0.8
0.547584
0.55036
0.553664
0.557613
0.562417
0.568413
0.576157
0.586665
0.602469
0.636013
0.781561
0.799237
0.79998
0.8
0.8
0.8
0.8
0.8
0.8
0.8
0.8
0.8
0.8
0.8
0.8
0.8
0.8
0.8
0.8
0.8
0.796224
0.795278
0.796369
0.79821
0.79943
0.799873
0.799979
0.799997
0.8
0.8
0.553584
0.55619
0.559211
0.562765
0.567062
0.572439
0.57946
0.589179
0.604262
0.638277
0.780291
0.799137
0.799977
0.8
0.8
0.8
0.8
0.8
0.8
0.8
0.8
0.8
0.8
0.8
0.8
0.8
0.8
0.8
0.8
0.8
0.798835
0.798601
0.798936
0.799466
0.799819
0.799956
0.799992
0.799999
0.8
0.8
0.559788
0.562201
0.564909
0.568025
0.571745
0.576385
0.582486
0.591076
0.604827
0.637655
0.776025
0.798843
0.799969
0.799999
0.8
0.8
0.8
0.8
0.8
0.8
0.8
0.8
0.8
0.8
0.8
0.8
0.8
0.8
0.8
0.8
0.799686
0.799632
0.799713
0.799847
0.799943
0.799984
0.799997
0.8
0.8
0.8
0.56632
0.568521
0.570897
0.573548
0.576643
0.580457
0.58546
0.592564
0.604173
0.632847
0.762992
0.798054
0.799951
0.799999
0.8
0.8
0.8
0.8
0.8
0.8
0.8
0.8
0.8
0.8
0.8
0.8
0.8
0.8
0.8
0.8
0.799928
0.799914
0.799927
0.799957
0.799982
0.799994
0.799999
0.8
0.8
0.8
0.57334
0.575319
0.577358
0.579542
0.582005
0.584965
0.588787
0.594162
0.602877
0.623689
0.628773
0.634171
0.639709
0.645388
0.651227
0.657282
0.663679
0.670648
0.678585
0.688126
0.70017
0.71571
0.735116
0.75672
0.77623
0.789525
0.796224
0.798835
0.799686
0.799928
0.79998
0.799981
0.799982
0.799988
0.799994
0.799998
0.799999
0.8
0.8
0.8
0.581051
0.582805
0.584522
0.586265
0.58814
0.59031
0.593044
0.596821
0.60276
0.615108
0.62109
0.62604
0.630747
0.635516
0.640454
0.645659
0.65128
0.657567
0.664927
0.673999
0.685717
0.701257
0.721548
0.745751
0.769412
0.786517
0.795278
0.798601
0.799632
0.799914
0.799981
0.799994
0.799996
0.799997
0.799998
0.799999
0.8
0.8
0.8
0.8
0.589718
0.591255
0.592674
0.594025
0.595392
0.596898
0.598739
0.60124
0.605046
0.611935
0.617436
0.622208
0.626666
0.631164
0.635901
0.641003
0.646667
0.653209
0.661123
0.671158
0.684353
0.701928
0.724549
0.750399
0.773809
0.789176
0.796369
0.798936
0.799713
0.799927
0.799982
0.799996
0.799998
0.799999
0.799999
0.8
0.8
0.8
0.8
0.8
0.59974
0.601069
0.602218
0.60323
0.604176
0.605157
0.606321
0.607894
0.610253
0.614138
0.61826
0.622325
0.626468
0.630949
0.635869
0.641401
0.647831
0.655608
0.665407
0.678167
0.695035
0.716835
0.742474
0.767192
0.785044
0.794447
0.79821
0.799466
0.799847
0.799957
0.799988
0.799997
0.799999
0.8
0.8
0.8
0.8
0.8
0.8
0.8
0.612054
0.61319
0.614096
0.614816
0.615417
0.615991
0.616665
0.617613
0.619084
0.62145
0.624527
0.62823
0.632528
0.637493
0.643292
0.650218
0.658743
0.669564
0.683608
0.701854
0.724544
0.749566
0.771893
0.787088
0.794978
0.798256
0.79943
0.799819
0.799943
0.799982
0.799994
0.799998
0.799999
0.8
0.8
0.8
0.8
0.8
0.8
0.8
0.629789
0.630835
0.631597
0.63213
0.632514
0.632855
0.633295
0.634024
0.635289
0.637395
0.640491
0.644629
0.649889
0.656458
0.66468
0.675099
0.688447
0.705438
0.726104
0.748668
0.769284
0.78433
0.79307
0.797247
0.798981
0.799638
0.799873
0.799956
0.799984
0.799994
0.799998
0.799999
0.8
0.8
0.8
0.8
0.8
0.8
0.8
0.8
0.660272
0.661485
0.662341
0.662923
0.663343
0.663753
0.664351
0.665392
0.667186
0.670091
0.674426
0.680467
0.688512
0.698931
0.712075
0.727966
0.745737
0.763303
0.778059
0.788401
0.794491
0.797593
0.799012
0.799612
0.799852
0.799944
0.799979
0.799992
0.799997
0.799999
0.799999
0.8
0.8
0.8
0.8
0.8
0.8
0.8
0.8
0.8
0.713207
0.714792
0.715948
0.716798
0.717505
0.718287
0.71942
0.721237
0.724116
0.728446
0.734525
0.742455
0.752028
0.762615
0.773155
0.782434
0.789564
0.794342
0.797168
0.798674
0.799412
0.799751
0.799898
0.799959
0.799984
0.799994
0.799997
0.799999
0.8
0.8
0.8
0.8
0.8
0.8
0.8
0.8
0.8
0.8
0.8
0.8
0.773224
0.774231
0.774981
0.775562
0.776086
0.776694
0.777547
0.778813
0.780632
0.783054
0.785985
0.789164
0.792232
0.794861
0.796863
0.798225
0.799062
0.799534
0.79978
0.799901
0.799957
0.799982
0.799993
0.799997
0.799999
0.8
0.8
0.8
0.8
0.8
0.8
0.8
0.8
0.8
0.8
0.8
0.8
0.8
0.8
0.8
0.79736
0.797504
0.797614
0.797702
0.797786
0.797883
0.798014
0.798195
0.798433
0.798717
0.79902
0.799307
0.799547
0.799725
0.799845
0.799918
0.799959
0.799981
0.799991
0.799996
0.799998
0.799999
0.8
0.8
0.8
0.8
0.8
0.8
0.8
0.8
0.8
0.8
0.8
0.8
0.8
0.8
0.8
0.8
0.8
0.8
0.205731
0.216633
0.237333
0.262967
0.288952
0.313304
0.335456
0.355392
0.373284
0.389359
0.40385
0.416983
0.428947
0.43989
0.44994
0.459211
0.46781
0.475829
0.483344
0.490427
0.497141
0.503545
0.509696
0.515646
0.521451
0.527166
0.532856
0.538592
0.54446
0.550565
0.557043
0.564078
0.571954
0.581182
0.592845
0.609357
0.635831
0.682319
0.750746
0.793517
0.216625
0.231166
0.252403
0.276332
0.300196
0.322712
0.343428
0.362277
0.379354
0.39482
0.40886
0.421657
0.433361
0.444096
0.453974
0.4631
0.471577
0.479486
0.4869
0.493885
0.500503
0.506808
0.512851
0.518683
0.524354
0.529917
0.535432
0.540973
0.546624
0.552497
0.558733
0.565528
0.573171
0.582186
0.59367
0.610074
0.636584
0.683346
0.751776
0.793755
0.23733
0.252404
0.271923
0.29316
0.314386
0.334687
0.353661
0.371177
0.387249
0.401962
0.415443
0.427815
0.43918
0.449636
0.459278
0.468204
0.476504
0.484249
0.491508
0.498343
0.504807
0.510951
0.51682
0.522459
0.527914
0.533233
0.538475
0.543712
0.549036
0.554568
0.560463
0.56693
0.574274
0.583025
0.594292
0.610555
0.637059
0.684027
0.752495
0.793928
0.262969
0.276333
0.29316
0.31149
0.330063
0.348146
0.36535
0.381495
0.396523
0.410457
0.423354
0.435267
0.446258
0.456398
0.46577
0.474462
0.482547
0.490093
0.497161
0.503807
0.510078
0.516017
0.521662
0.527051
0.532222
0.537218
0.542094
0.546922
0.551804
0.556874
0.562311
0.56835
0.575314
0.583742
0.594753
0.610848
0.637321
0.684462
0.753015
0.794061
0.288954
0.300196
0.314385
0.330063
0.346246
0.362312
0.377887
0.39276
0.406828
0.420051
0.432406
0.443882
0.454503
0.464323
0.473418
0.48186
0.489714
0.497043
0.503902
0.51034
0.516398
0.522108
0.527502
0.532604
0.537444
0.542053
0.54648
0.550795
0.555106
0.559571
0.564405
0.569886
0.576368
0.584404
0.595116
0.611023
0.637461
0.684786
0.753478
0.794188
0.313305
0.322711
0.334686
0.348145
0.362312
0.376657
0.390837
0.404634
0.417915
0.430569
0.442487
0.453599
0.463896
0.473427
0.482259
0.490456
0.498082
0.505198
0.511852
0.518087
0.523934
0.529418
0.534558
0.539365
0.543853
0.548037
0.551947
0.555643
0.559238
0.562915
0.566948
0.571693
0.577556
0.585107
0.595471
0.611176
0.637603
0.685177
0.754063
0.794351
0.335456
0.343427
0.35366
0.365349
0.377887
0.390836
0.403902
0.416883
0.429614
0.441914
0.453588
0.464471
0.474536
0.483837
0.492439
0.500418
0.507843
0.514772
0.521251
0.527314
0.532985
0.538281
0.543203
0.547749
0.551908
0.555666
0.559024
0.56201
0.56472
0.567362
0.570296
0.574033
0.579069
0.586001
0.595947
0.611442
0.637907
0.685856
0.754983
0.794592
0.355391
0.362275
0.371176
0.381494
0.39276
0.404634
0.416883
0.429331
0.441808
0.4541
0.465886
0.476773
0.486745
0.49589
0.504321
0.512138
0.519417
0.52622
0.532591
0.53856
0.544144
0.549344
0.554153
0.558543
0.562475
0.565893
0.568735
0.570959
0.572594
0.573834
0.575151
0.577396
0.581239
0.587317
0.59673
0.611997
0.638573
0.687087
0.756472
0.794952
0.373284
0.379352
0.387247
0.396522
0.406827
0.417915
0.429614
0.441808
0.454418
0.467321
0.480057
0.49133
0.501374
0.510474
0.518832
0.526588
0.533839
0.540652
0.547072
0.553127
0.558826
0.564162
0.569111
0.573625
0.577626
0.580995
0.583565
0.585129
0.585502
0.584702
0.583279
0.582885
0.584699
0.589432
0.598079
0.613059
0.63983
0.689166
0.758757
0.795456
0.389358
0.394819
0.401961
0.410456
0.420051
0.430568
0.441914
0.4541
0.467321
0.482113
0.499119
0.511297
0.521633
0.530889
0.539407
0.547384
0.554943
0.562168
0.569111
0.575808
0.582271
0.588494
0.594448
0.600066
0.605227
0.609717
0.613172
0.614994
0.614265
0.609895
0.601724
0.593909
0.590878
0.592968
0.60033
0.614866
0.641918
0.6924
0.762005
0.796098
0.403849
0.408858
0.415442
0.423353
0.432405
0.442487
0.453588
0.465886
0.480057
0.499119
0.761569
0.769158
0.765595
0.763748
0.763026
0.763012
0.763486
0.764308
0.765378
0.766615
0.76795
0.769312
0.770627
0.771801
0.772708
0.773151
0.77277
0.77077
0.764909
0.747343
0.606722
0.59933
0.595854
0.596818
0.603283
0.617484
0.645004
0.697065
0.766258
0.796833
0.416982
0.421656
0.427814
0.435267
0.443881
0.453598
0.464471
0.476773
0.491329
0.511297
0.769158
0.797581
0.798317
0.798074
0.797925
0.797863
0.797865
0.797913
0.797993
0.798094
0.798206
0.798319
0.798425
0.798515
0.798578
0.798598
0.798544
0.798347
0.797817
0.796421
0.611989
0.603868
0.600265
0.600756
0.606742
0.620867
0.649178
0.703385
0.771376
0.797589
0.428946
0.43336
0.439179
0.446257
0.454502
0.463895
0.474536
0.486744
0.501374
0.521633
0.765595
0.798317
0.799909
0.799941
0.799934
0.799929
0.799928
0.799929
0.799932
0.799936
0.79994
0.799944
0.799949
0.799952
0.799955
0.799955
0.799954
0.799947
0.79993
0.799896
0.617246
0.608219
0.604507
0.604799
0.610608
0.624963
0.654515