/*--------------------------------*- C++ -*----------------------------------*\
| =========                 |                                                 |
| \\      /  F ield         | OpenFOAM: The Open Source CFD Toolbox           |
|  \\    /   O peration     | Version:  2.1.0                                 |
|   \\  /    A nd           | Web:      www.OpenFOAM.org                      |
|    \\/     M anipulation  |                                                 |
\*---------------------------------------------------------------------------*/
FoamFile
{
    version     2.0;
    format      ascii;
    class       volScalarField;
    location    "24090";
    object      sw;
}
// * * * * * * * * * * * * * * * * * * * * * * * * * * * * * * * * * * * * * //

dimensions      [0 0 0 0 0 0 0];

internalField   nonuniform List<scalar> 
8000
(
0.706889
0.692921
0.675964
0.65807
0.640326
0.62326
0.607093
0.591886
0.577618
0.564267
0.551804
0.540191
0.529376
0.519294
0.509878
0.501065
0.492795
0.484997
0.477601
0.470546
0.463771
0.457218
0.450829
0.444543
0.438294
0.432003
0.425579
0.418901
0.411808
0.404074
0.395364
0.385161
0.372605
0.356248
0.333824
0.302913
0.262778
0.223588
0.204315
0.200331
0.692923
0.680449
0.665172
0.648824
0.632382
0.616359
0.601004
0.586411
0.572608
0.559611
0.547423
0.536025
0.525376
0.515424
0.506111
0.497384
0.489181
0.481436
0.474083
0.467062
0.460318
0.453795
0.447439
0.441192
0.434993
0.428769
0.42243
0.415858
0.408892
0.401301
0.392741
0.382673
0.370203
0.353827
0.33123
0.300099
0.260162
0.222144
0.203983
0.200303
0.675965
0.665172
0.651791
0.637212
0.622284
0.607494
0.593105
0.579248
0.566009
0.553448
0.541599
0.530466
0.520027
0.510245
0.501074
0.492469
0.484369
0.47671
0.469432
0.462481
0.455804
0.449353
0.443078
0.43693
0.430853
0.42478
0.418627
0.412279
0.405572
0.398266
0.390001
0.380211
0.367959
0.351688
0.329042
0.297819
0.258129
0.221052
0.203732
0.200281
0.65807
0.648824
0.637212
0.624324
0.610875
0.597308
0.583885
0.570777
0.558118
0.546006
0.534507
0.523649
0.513433
0.503834
0.494824
0.486358
0.478375
0.470816
0.463627
0.456758
0.450165
0.443804
0.437636
0.43162
0.425712
0.419856
0.413977
0.407966
0.401656
0.394796
0.387
0.377655
0.365776
0.349745
0.327166
0.295945
0.256512
0.220199
0.203534
0.200263
0.640326
0.632382
0.622284
0.610875
0.598742
0.586271
0.573724
0.561304
0.549174
0.537464
0.526271
0.515654
0.505635
0.496211
0.487359
0.479023
0.471148
0.463678
0.456565
0.449764
0.443238
0.436954
0.430883
0.424999
0.419275
0.413674
0.40814
0.402577
0.396823
0.390609
0.383501
0.374818
0.363501
0.347862
0.325461
0.294308
0.255125
0.219463
0.203359
0.200247
0.62326
0.616359
0.607494
0.597308
0.586271
0.574721
0.562918
0.551072
0.539359
0.527938
0.516945
0.506485
0.496606
0.487321
0.478586
0.470344
0.462537
0.455114
0.448027
0.44124
0.434723
0.428453
0.422417
0.41661
0.411031
0.405677
0.400529
0.395525
0.390518
0.385216
0.37911
0.371392
0.36089
0.345826
0.323714
0.292683
0.253746
0.218711
0.203175
0.20023
0.607093
0.601004
0.593105
0.583885
0.573724
0.562919
0.551702
0.540269
0.528797
0.517467
0.50648
0.496027
0.486195
0.476963
0.468268
0.460041
0.45222
0.444751
0.437587
0.430696
0.424056
0.417657
0.411505
0.405624
0.400055
0.394854
0.390072
0.385718
0.381695
0.3777
0.373103
0.366837
0.357535
0.343299
0.321604
0.290758
0.252097
0.217793
0.202951
0.200209
0.591886
0.586411
0.579249
0.570777
0.561304
0.551072
0.540269
0.529049
0.517556
0.505977
0.494628
0.483943
0.47398
0.464654
0.45586
0.447505
0.439509
0.431809
0.424359
0.417124
0.410088
0.403257
0.396662
0.390366
0.384474
0.37913
0.374514
0.370804
0.368065
0.366056
0.363961
0.36009
0.352702
0.339728
0.318661
0.288121
0.249849
0.216556
0.202659
0.200183
0.577619
0.572608
0.566009
0.558118
0.549175
0.53936
0.528797
0.517556
0.505667
0.493208
0.480624
0.469237
0.458838
0.449158
0.439999
0.431214
0.422695
0.414359
0.406144
0.398011
0.38995
0.381977
0.374141
0.366544
0.359369
0.352922
0.347669
0.344226
0.343193
0.344707
0.347697
0.348722
0.344989
0.33423
0.314235
0.284282
0.246668
0.214885
0.20229
0.200152
0.564267
0.559612
0.553448
0.546007
0.537465
0.527938
0.517467
0.505977
0.493208
0.478531
0.46101
0.447998
0.436534
0.425847
0.41556
0.405429
0.395272
0.384944
0.374314
0.363264
0.351708
0.339632
0.327173
0.314704
0.302916
0.292792
0.285508
0.282404
0.285175
0.295535
0.312822
0.327956
0.332597
0.325927
0.307751
0.278833
0.242329
0.212763
0.201857
0.200118
0.551804
0.547424
0.541599
0.534507
0.526271
0.516946
0.50648
0.494628
0.480624
0.46101
0.226068
0.219092
0.22038
0.220467
0.219792
0.218647
0.217203
0.215574
0.21385
0.212109
0.210418
0.208841
0.207434
0.206248
0.205325
0.204705
0.204454
0.204745
0.206133
0.210658
0.306214
0.317747
0.32218
0.316633
0.299625
0.271801
0.23689
0.210321
0.201404
0.200085
0.540191
0.536025
0.530466
0.523649
0.515655
0.506485
0.496027
0.483943
0.469237
0.447998
0.219092
0.201038
0.200662
0.200701
0.200694
0.200653
0.20059
0.200518
0.200443
0.20037
0.200305
0.200248
0.200202
0.200166
0.20014
0.200125
0.200123
0.20014
0.200198
0.200358
0.29855
0.308699
0.312257
0.306686
0.290404
0.263505
0.230691
0.207811
0.200985
0.200056
0.529376
0.525376
0.520028
0.513433
0.505636
0.496606
0.486195
0.47398
0.458838
0.436534
0.22038
0.200662
0.200027
0.200016
0.200016
0.200015
0.200014
0.200012
0.20001
0.200008
0.200007
0.200005
0.200004
0.200004
0.200003
0.200003
0.200003
0.200003
0.200004
0.200007
0.290112
0.2995
0.302152
0.296267
0.280407
0.254368
0.224234
0.205507
0.200641
0.200035
0.519294
0.515424
0.510246
0.503834
0.496212
0.487321
0.476963
0.464654
0.449159
0.425847
0.220467
0.200701
0.200016
0.200001
0.2
0.2
0.2
0.2
0.2
0.2
0.2
0.2
0.2
0.2
0.2
0.2
0.2
0.2
0.2
0.2
0.281074
0.289984
0.291824
0.285602
0.269898
0.244865
0.218044
0.203608
0.200388
0.20002
0.509878
0.506111
0.501074
0.494825
0.487359
0.478586
0.468268
0.45586
0.439999
0.41556
0.219792
0.200694
0.200016
0.2
0.2
0.2
0.2
0.2
0.2
0.2
0.2
0.2
0.2
0.2
0.2
0.2
0.2
0.2
0.2
0.2
0.271613
0.280128
0.281307
0.274734
0.259163
0.235494
0.212568
0.202199
0.200219
0.200011
0.501066
0.497384
0.49247
0.486359
0.479024
0.470344
0.460042
0.447505
0.431214
0.405429
0.218647
0.200653
0.200015
0.2
0.2
0.2
0.2
0.2
0.2
0.2
0.2
0.2
0.2
0.2
0.2
0.2
0.2
0.2
0.2
0.2
0.261933
0.270033
0.270665
0.263816
0.248533
0.226712
0.208113
0.201249
0.200116
0.200005
0.492796
0.489182
0.484369
0.478375
0.471148
0.462538
0.452221
0.439509
0.422695
0.395272
0.217203
0.20059
0.200014
0.2
0.2
0.2
0.2
0.2
0.2
0.2
0.2
0.2
0.2
0.2
0.2
0.2
0.2
0.2
0.2
0.2
0.252286
0.25989
0.260075
0.25308
0.238338
0.218896
0.20482
0.200665
0.200058
0.200003
0.484997
0.481436
0.47671
0.470816
0.463679
0.455114
0.444751
0.43181
0.414359
0.384944
0.215574
0.200518
0.200012
0.2
0.2
0.2
0.2
0.2
0.2
0.2
0.2
0.2
0.2
0.2
0.2
0.2
0.2
0.2
0.2
0.2
0.242948
0.249938
0.249762
0.242755
0.228855
0.212348
0.202634
0.200333
0.200028
0.200001
0.477601
0.474083
0.469432
0.463627
0.456565
0.448028
0.437588
0.424359
0.406144
0.374314
0.21385
0.200443
0.20001
0.2
0.2
0.2
0.2
0.2
0.2
0.2
0.2
0.2
0.2
0.2
0.2
0.2
0.2
0.2
0.2
0.2
0.234163
0.240404
0.23991
0.233013
0.220331
0.20731
0.201333
0.200158
0.200013
0.200001
0.470546
0.467063
0.462481
0.456759
0.449765
0.441241
0.430697
0.417124
0.398011
0.363265
0.212109
0.20037
0.200008
0.2
0.2
0.2
0.2
0.2
0.2
0.2
0.2
0.2
0.2
0.2
0.2
0.2
0.2
0.2
0.2
0.2
0.226089
0.231436
0.230627
0.223999
0.213071
0.203876
0.20063
0.200072
0.200006
0.2
0.463771
0.460319
0.455805
0.450165
0.443238
0.434723
0.424056
0.410089
0.38995
0.351708
0.210418
0.200305
0.200007
0.2
0.2
0.2
0.2
0.2
0.2
0.2
0.2
0.2
0.2
0.2
0.2
0.2
0.2
0.2
0.2
0.2
0.218815
0.223119
0.222012
0.215966
0.207448
0.20185
0.20028
0.200031
0.200002
0.2
0.457218
0.453795
0.449353
0.443804
0.436954
0.428453
0.417657
0.403258
0.381977
0.339633
0.208841
0.200248
0.200005
0.2
0.2
0.2
0.2
0.2
0.2
0.2
0.2
0.2
0.2
0.2
0.2
0.2
0.2
0.2
0.2
0.2
0.212478
0.215613
0.214329
0.209374
0.203694
0.200809
0.200119
0.200013
0.200001
0.2
0.450829
0.447439
0.443079
0.437636
0.430883
0.422417
0.411505
0.396662
0.374141
0.327173
0.207434
0.200202
0.200004
0.2
0.2
0.2
0.2
0.2
0.2
0.2
0.2
0.2
0.2
0.2
0.2
0.2
0.2
0.2
0.2
0.2
0.207359
0.209308
0.208109
0.204709
0.201607
0.20033
0.200048
0.200005
0.2
0.2
0.444543
0.441193
0.436931
0.431621
0.424999
0.41661
0.405624
0.390367
0.366544
0.314705
0.206248
0.200166
0.200004
0.2
0.2
0.2
0.2
0.2
0.2
0.2
0.2
0.2
0.2
0.2
0.2
0.2
0.2
0.2
0.2
0.2
0.203754
0.20472
0.203866
0.202017
0.20063
0.200127
0.200019
0.200002
0.2
0.2
0.438294
0.434994
0.430853
0.425712
0.419275
0.411031
0.400056
0.384474
0.359369
0.302916
0.205325
0.20014
0.200003
0.2
0.2
0.2
0.2
0.2
0.2
0.2
0.2
0.2
0.2
0.2
0.2
0.2
0.2
0.2
0.2
0.2
0.201647
0.202013
0.201556
0.200756
0.200228
0.200047
0.200007
0.200001
0.2
0.2
0.432004
0.42877
0.424781
0.419856
0.413674
0.405677
0.394855
0.37913
0.352922
0.292792
0.204705
0.200125
0.200003
0.2
0.2
0.2
0.2
0.2
0.2
0.2
0.2
0.2
0.2
0.2
0.2
0.2
0.2
0.2
0.2
0.2
0.200629
0.200736
0.200544
0.200256
0.200078
0.200017
0.200003
0.2
0.2
0.2
0.425579
0.422431
0.418628
0.413978
0.40814
0.40053
0.390072
0.374514
0.347669
0.285508
0.204454
0.200123
0.200003
0.2
0.2
0.2
0.2
0.2
0.2
0.2
0.2
0.2
0.2
0.2
0.2
0.2
0.2
0.2
0.2
0.2
0.200212
0.200237
0.200171
0.200081
0.200026
0.200006
0.200001
0.2
0.2
0.2
0.418901
0.415859
0.41228
0.407966
0.402577
0.395526
0.385718
0.370804
0.344226
0.282404
0.204745
0.20014
0.200003
0.2
0.2
0.2
0.2
0.2
0.2
0.2
0.2
0.2
0.2
0.2
0.2
0.2
0.2
0.2
0.2
0.2
0.200064
0.200069
0.200049
0.200024
0.200008
0.200002
0.2
0.2
0.2
0.2
0.411808
0.408893
0.405572
0.401656
0.396824
0.390518
0.381695
0.368065
0.343194
0.285175
0.206133
0.200198
0.200004
0.2
0.2
0.2
0.2
0.2
0.2
0.2
0.2
0.2
0.2
0.2
0.2
0.2
0.2
0.2
0.2
0.2
0.200017
0.200018
0.200013
0.200007
0.200003
0.200001
0.2
0.2
0.2
0.2
0.404074
0.401301
0.398266
0.394797
0.390609
0.385216
0.3777
0.366056
0.344707
0.295535
0.210658
0.200358
0.200007
0.2
0.2
0.2
0.2
0.2
0.2
0.2
0.2
0.2
0.2
0.2
0.2
0.2
0.2
0.2
0.2
0.2
0.200004
0.200004
0.200003
0.200002
0.200001
0.2
0.2
0.2
0.2
0.2
0.395365
0.392741
0.390002
0.387
0.383501
0.37911
0.373104
0.363961
0.347697
0.312822
0.306215
0.29855
0.290112
0.281075
0.271613
0.261933
0.252286
0.242948
0.234163
0.226089
0.218815
0.212478
0.207359
0.203754
0.201647
0.200629
0.200212
0.200064
0.200017
0.200004
0.200001
0.200001
0.200001
0.200001
0.2
0.2
0.2
0.2
0.2
0.2
0.385161
0.382673
0.380211
0.377656
0.374819
0.371393
0.366837
0.36009
0.348723
0.327957
0.317747
0.3087
0.2995
0.289984
0.280128
0.270034
0.25989
0.249938
0.240404
0.231436
0.223119
0.215613
0.209308
0.20472
0.202013
0.200736
0.200237
0.200069
0.200018
0.200004
0.200001
0.2
0.2
0.2
0.2
0.2
0.2
0.2
0.2
0.2
0.372606
0.370203
0.367959
0.365776
0.363501
0.36089
0.357535
0.352702
0.34499
0.332597
0.32218
0.312257
0.302152
0.291824
0.281307
0.270665
0.260075
0.249762
0.23991
0.230627
0.222012
0.214329
0.208109
0.203866
0.201556
0.200544
0.200171
0.200049
0.200013
0.200003
0.200001
0.2
0.2
0.2
0.2
0.2
0.2
0.2
0.2
0.2
0.356248
0.353827
0.351688
0.349745
0.347862
0.345826
0.343299
0.339728
0.33423
0.325927
0.316633
0.306687
0.296267
0.285603
0.274734
0.263816
0.25308
0.242755
0.233013
0.223999
0.215966
0.209374
0.204709
0.202017
0.200756
0.200256
0.200081
0.200024
0.200007
0.200002
0.200001
0.2
0.2
0.2
0.2
0.2
0.2
0.2
0.2
0.2
0.333824
0.33123
0.329042
0.327166
0.325461
0.323714
0.321605
0.318661
0.314236
0.307751
0.299626
0.290404
0.280407
0.269898
0.259163
0.248533
0.238338
0.228855
0.220331
0.213071
0.207448
0.203694
0.201608
0.20063
0.200228
0.200078
0.200026
0.200008
0.200003
0.200001
0.2
0.2
0.2
0.2
0.2
0.2
0.2
0.2
0.2
0.2
0.302914
0.3001
0.29782
0.295945
0.294308
0.292683
0.290758
0.288122
0.284282
0.278833
0.271801
0.263505
0.254368
0.244865
0.235494
0.226712
0.218896
0.212348
0.207311
0.203876
0.20185
0.200809
0.20033
0.200127
0.200047
0.200017
0.200006
0.200002
0.200001
0.2
0.2
0.2
0.2
0.2
0.2
0.2
0.2
0.2
0.2
0.2
0.262778
0.260163
0.258129
0.256512
0.255126
0.253747
0.252097
0.249849
0.246668
0.24233
0.23689
0.230691
0.224234
0.218045
0.212568
0.208113
0.20482
0.202634
0.201333
0.20063
0.20028
0.200119
0.200048
0.200019
0.200007
0.200003
0.200001
0.2
0.2
0.2
0.2
0.2
0.2
0.2
0.2
0.2
0.2
0.2
0.2
0.2
0.223588
0.222144
0.221052
0.220199
0.219463
0.218711
0.217793
0.216556
0.214886
0.212763
0.210321
0.207811
0.205507
0.203608
0.202199
0.201249
0.200665
0.200333
0.200158
0.200072
0.200031
0.200013
0.200005
0.200002
0.200001
0.2
0.2
0.2
0.2
0.2
0.2
0.2
0.2
0.2
0.2
0.2
0.2
0.2
0.2
0.2
0.204315
0.203983
0.203732
0.203534
0.203359
0.203175
0.202951
0.202659
0.20229
0.201857
0.201404
0.200985
0.200641
0.200388
0.200219
0.200116
0.200058
0.200028
0.200013
0.200006
0.200002
0.200001
0.2
0.2
0.2
0.2
0.2
0.2
0.2
0.2
0.2
0.2
0.2
0.2
0.2
0.2
0.2
0.2
0.2
0.2
0.200331
0.200303
0.200281
0.200263
0.200247
0.20023
0.200209
0.200183
0.200152
0.200118
0.200085
0.200056
0.200035
0.20002
0.200011
0.200005
0.200003
0.200001
0.200001
0.2
0.2
0.2
0.2
0.2
0.2
0.2
0.2
0.2
0.2
0.2
0.2
0.2
0.2
0.2
0.2
0.2
0.2
0.2
0.2
0.2
0.764926
0.7486
0.727264
0.704378
0.68196
0.660896
0.641471
0.623706
0.607504
0.592718
0.579185
0.566771
0.555364
0.544859
0.535154
0.526144
0.517738
0.509865
0.502451
0.495431
0.488743
0.482329
0.476135
0.470106
0.464186
0.458312
0.452416
0.446416
0.440212
0.433679
0.42666
0.418949
0.410282
0.40026
0.387946
0.370211
0.339728
0.286793
0.226776
0.20264
0.748605
0.733098
0.713601
0.692791
0.672217
0.65264
0.634368
0.61748
0.601936
0.587637
0.574467
0.562332
0.551145
0.540816
0.531253
0.522357
0.514049
0.506261
0.498923
0.491973
0.485354
0.479012
0.472896
0.466956
0.46114
0.45539
0.449639
0.443809
0.437799
0.431478
0.424681
0.417194
0.408745
0.398931
0.386809
0.369164
0.338515
0.285208
0.225769
0.202496
0.727266
0.713602
0.696598
0.678283
0.659888
0.642086
0.625207
0.609389
0.59465
0.580948
0.568232
0.556452
0.545551
0.535457
0.526086
0.51735
0.509187
0.501528
0.49431
0.487477
0.480977
0.474761
0.468784
0.463004
0.457372
0.451837
0.446336
0.440789
0.435091
0.429102
0.422641
0.415478
0.407326
0.397782
0.385904
0.368403
0.337658
0.284052
0.225019
0.202386
0.704378
0.692792
0.678284
0.662403
0.646147
0.630119
0.614656
0.599934
0.58602
0.572936
0.560698
0.5493
0.538713
0.52888
0.519723
0.511179
0.503187
0.495685
0.488616
0.48193
0.47558
0.469528
0.463736
0.458167
0.452784
0.447544
0.442387
0.437234
0.431974
0.426451
0.420458
0.413735
0.405974
0.396769
0.385184
0.367869
0.337076
0.283202
0.224438
0.202297
0.68196
0.672218
0.659889
0.646148
0.631805
0.617389
0.603226
0.589506
0.576341
0.563824
0.552029
0.540993
0.530708
0.521126
0.512187
0.503841
0.496029
0.488692
0.481781
0.475251
0.469066
0.463193
0.457606
0.452282
0.447193
0.44231
0.437583
0.432937
0.428255
0.423356
0.417995
0.41186
0.404608
0.395823
0.384582
0.367485
0.336657
0.282495
0.223914
0.202214
0.660896
0.65264
0.642086
0.630119
0.617389
0.604345
0.59128
0.57839
0.565838
0.553772
0.542321
0.53157
0.521529
0.512158
0.503422
0.49526
0.487613
0.480429
0.473663
0.467277
0.461243
0.45554
0.450154
0.445076
0.4403
0.435812
0.431587
0.42756
0.423614
0.419542
0.415034
0.409689
0.403101
0.394843
0.384008
0.367145
0.336247
0.281713
0.223306
0.202117
0.641472
0.634369
0.625208
0.614656
0.603226
0.59128
0.579072
0.566807
0.554673
0.542859
0.531565
0.520951
0.511047
0.501834
0.493253
0.485234
0.477717
0.470647
0.463986
0.457701
0.451775
0.446197
0.44097
0.436103
0.431616
0.427526
0.423843
0.420539
0.417514
0.414539
0.411213
0.406956
0.40126
0.393679
0.383335
0.366705
0.335649
0.28058
0.222453
0.201986
0.623707
0.61748
0.609389
0.599934
0.589506
0.57839
0.566807
0.554938
0.542953
0.531056
0.519552
0.508821
0.498921
0.489772
0.481271
0.473327
0.465867
0.458838
0.452199
0.445929
0.440016
0.434466
0.429297
0.424544
0.420256
0.416497
0.413335
0.41082
0.408923
0.407436
0.405837
0.403179
0.398759
0.392105
0.382387
0.365976
0.334608
0.278763
0.221187
0.201805
0.607504
0.601936
0.594651
0.58602
0.576341
0.565838
0.554673
0.542953
0.530742
0.518135
0.505554
0.494324
0.484234
0.475014
0.466472
0.458474
0.450929
0.443776
0.436977
0.430515
0.424391
0.418629
0.413268
0.408373
0.404031
0.400362
0.39753
0.395737
0.395173
0.395827
0.397123
0.39724
0.394954
0.389746
0.380916
0.364711
0.332814
0.275883
0.219368
0.201567
0.592718
0.587637
0.580949
0.572936
0.563824
0.553772
0.54286
0.531056
0.518135
0.503506
0.486486
0.474172
0.463609
0.45405
0.445151
0.436719
0.428629
0.420799
0.41318
0.405753
0.398536
0.391576
0.384947
0.378733
0.373029
0.367996
0.363987
0.361723
0.362345
0.367153
0.37631
0.384892
0.388064
0.385861
0.37855
0.362604
0.329909
0.271554
0.216946
0.201283
0.579185
0.574467
0.568232
0.560698
0.552029
0.542322
0.531565
0.519552
0.505554
0.486486
0.234919
0.227315
0.230146
0.231418
0.231672
0.231281
0.230448
0.229302
0.22794
0.226437
0.224861
0.223276
0.221751
0.220364
0.219221
0.218483
0.218439
0.219709
0.223975
0.237008
0.371227
0.37891
0.382563
0.381739
0.375472
0.359509
0.325573
0.265475
0.214015
0.20098
0.566772
0.562332
0.556452
0.549301
0.540993
0.53157
0.520951
0.508821
0.494324
0.474172
0.227315
0.20193
0.20131
0.20147
0.201551
0.201563
0.201525
0.201453
0.201358
0.201252
0.201141
0.201033
0.200933
0.200848
0.200783
0.200749
0.200763
0.200863
0.201157
0.201946
0.365829
0.37396
0.377792
0.377674
0.37177
0.355371
0.319533
0.257545
0.210836
0.200693
0.555365
0.551145
0.545551
0.538714
0.530708
0.521529
0.511047
0.498921
0.484234
0.46361
0.230146
0.20131
0.200065
0.200041
0.200045
0.200046
0.200046
0.200044
0.200041
0.200037
0.200033
0.200029
0.200026
0.200023
0.200021
0.20002
0.20002
0.200023
0.200031
0.200049
0.360291
0.369253
0.373334
0.373532
0.367472
0.350111
0.311487
0.247972
0.207768
0.200453
0.54486
0.540816
0.535457
0.528881
0.521126
0.512159
0.501835
0.489773
0.475015
0.45405
0.231417
0.20147
0.200041
0.200002
0.200001
0.200001
0.200001
0.200001
0.200001
0.200001
0.200001
0.200001
0.200001
0.200001
0.2
0.2
0.2
0.2
0.200001
0.200001
0.354612
0.364483
0.368836
0.369051
0.362506
0.343541
0.301069
0.237385
0.205138
0.200275
0.535155
0.531253
0.526087
0.519724
0.512187
0.503422
0.493253
0.481272
0.466472
0.445152
0.231672
0.201551
0.200045
0.200001
0.2
0.2
0.2
0.2
0.2
0.2
0.2
0.2
0.2
0.2
0.2
0.2
0.2
0.2
0.2
0.2
0.348773
0.359545
0.364099
0.364131
0.356708
0.33532
0.287924
0.226844
0.203137
0.200155
0.526145
0.522357
0.517351
0.511179
0.503842
0.49526
0.485235
0.473327
0.458474
0.43672
0.231281
0.201563
0.200046
0.200001
0.2
0.2
0.2
0.2
0.2
0.2
0.2
0.2
0.2
0.2
0.2
0.2
0.2
0.2
0.2
0.2
0.342718
0.354341
0.358996
0.358599
0.349782
0.324901
0.272034
0.217566
0.201775
0.200082
0.517739
0.51405
0.509187
0.503187
0.496029
0.487614
0.477717
0.465868
0.450929
0.428629
0.230448
0.201525
0.200046
0.200001
0.2
0.2
0.2
0.2
0.2
0.2
0.2
0.2
0.2
0.2
0.2
0.2
0.2
0.2
0.2
0.2
0.336321
0.348719
0.353332
0.352169
0.341256
0.311553
0.254263
0.210436
0.200938
0.200041
0.509865
0.506261
0.501528
0.495685
0.488693
0.48043
0.470648
0.458838
0.443776
0.420799
0.229302
0.201453
0.200044
0.200001
0.2
0.2
0.2
0.2
0.2
0.2
0.2
0.2
0.2
0.2
0.2
0.2
0.2
0.2
0.2
0.2
0.329352
0.342433
0.346791
0.344391
0.330436
0.294562
0.236697
0.205658
0.200466
0.200019
0.502452
0.498923
0.494311
0.488617
0.481781
0.473663
0.463986
0.4522
0.436977
0.41318
0.22794
0.201358
0.200041
0.200001
0.2
0.2
0.2
0.2
0.2
0.2
0.2
0.2
0.2
0.2
0.2
0.2
0.2
0.2
0.2
0.2
0.321414
0.335073
0.338876
0.334593
0.316392
0.273896
0.221941
0.202832
0.20022
0.200009
0.495431
0.491974
0.487478
0.48193
0.475252
0.467277
0.457702
0.445929
0.430515
0.405754
0.226437
0.201252
0.200037
0.200001
0.2
0.2
0.2
0.2
0.2
0.2
0.2
0.2
0.2
0.2
0.2
0.2
0.2
0.2
0.2
0.2
0.311874
0.326
0.328842
0.321833
0.298146
0.251332
0.211599
0.201326
0.200099
0.200004
0.488743
0.485355
0.480977
0.475581
0.469066
0.461243
0.451775
0.440016
0.424392
0.398536
0.224861
0.201141
0.200033
0.200001
0.2
0.2
0.2
0.2
0.2
0.2
0.2
0.2
0.2
0.2
0.2
0.2
0.2
0.2
0.2
0.2
0.29983
0.314282
0.315647
0.304964
0.275456
0.230716
0.205509
0.200588
0.200043
0.200002
0.48233
0.479013
0.474761
0.469529
0.463193
0.45554
0.446197
0.434466
0.418629
0.391576
0.223276
0.201033
0.200029
0.200001
0.2
0.2
0.2
0.2
0.2
0.2
0.2
0.2
0.2
0.2
0.2
0.2
0.2
0.2
0.2
0.2
0.28429
0.298743
0.298071
0.283164
0.250434
0.21567
0.202407
0.200249
0.200018
0.200001
0.476136
0.472897
0.468785
0.463736
0.457607
0.450154
0.44097
0.429298
0.413268
0.384947
0.221751
0.200933
0.200026
0.200001
0.2
0.2
0.2
0.2
0.2
0.2
0.2
0.2
0.2
0.2
0.2
0.2
0.2
0.2
0.2
0.2
0.264884
0.278452
0.27545
0.257526
0.228107
0.20693
0.200988
0.200102
0.200007
0.2
0.470107
0.466957
0.463004
0.458167
0.452282
0.445077
0.436104
0.424545
0.408373
0.378733
0.220364
0.200848
0.200023
0.200001
0.2
0.2
0.2
0.2
0.2
0.2
0.2
0.2
0.2
0.2
0.2
0.2
0.2
0.2
0.2
0.2
0.24328
0.254249
0.249601
0.232808
0.212912
0.202753
0.200388
0.200041
0.200003
0.2
0.464186
0.46114
0.457372
0.452785
0.447194
0.4403
0.431616
0.420256
0.404031
0.37303
0.219221
0.200783
0.200021
0.2
0.2
0.2
0.2
0.2
0.2
0.2
0.2
0.2
0.2
0.2
0.2
0.2
0.2
0.2
0.2
0.2
0.22377
0.230587
0.226191
0.214956
0.205022
0.201019
0.200148
0.200016
0.200001
0.2
0.458313
0.45539
0.451837
0.447544
0.44231
0.435813
0.427527
0.416497
0.400363
0.367996
0.218483
0.200749
0.20002
0.2
0.2
0.2
0.2
0.2
0.2
0.2
0.2
0.2
0.2
0.2
0.2
0.2
0.2
0.2
0.2
0.2
0.210475
0.213483
0.210824
0.205553
0.201744
0.200362
0.200056
0.200006
0.2
0.2
0.452416
0.44964
0.446336
0.442387
0.437583
0.431587
0.423843
0.413335
0.397531
0.363987
0.218439
0.200763
0.20002
0.2
0.2
0.2
0.2
0.2
0.2
0.2
0.2
0.2
0.2
0.2
0.2
0.2
0.2
0.2
0.2
0.2
0.203776
0.204722
0.203631
0.20179
0.20057
0.200127
0.200021
0.200003
0.2
0.2
0.446416
0.44381
0.440789
0.437235
0.432938
0.427561
0.42054
0.410821
0.395738
0.361723
0.219709
0.200863
0.200023
0.2
0.2
0.2
0.2
0.2
0.2
0.2
0.2
0.2
0.2
0.2
0.2
0.2
0.2
0.2
0.2
0.2
0.201165
0.201399
0.201064
0.200534
0.200181
0.200044
0.200008
0.200001
0.2
0.2
0.440212
0.437799
0.435091
0.431975
0.428255
0.423615
0.417514
0.408924
0.395173
0.362345
0.223975
0.201157
0.200031
0.200001
0.2
0.2
0.2
0.2
0.2
0.2
0.2
0.2
0.2
0.2
0.2
0.2
0.2
0.2
0.2
0.2
0.200314
0.200368
0.200287
0.200153
0.200057
0.200016
0.200003
0.2
0.2
0.2
0.43368
0.431479
0.429103
0.426452
0.423357
0.419543
0.41454
0.407436
0.395827
0.367153
0.237008
0.201946
0.200049
0.200001
0.2
0.2
0.2
0.2
0.2
0.2
0.2
0.2
0.2
0.2
0.2
0.2
0.2
0.2
0.2
0.2
0.200072
0.200086
0.200073
0.200043
0.200018
0.200006
0.200001
0.2
0.2
0.2
0.42666
0.424681
0.422642
0.420458
0.417995
0.415035
0.411213
0.405838
0.397123
0.376311
0.371227
0.365829
0.360291
0.354612
0.348773
0.342718
0.336321
0.329352
0.321415
0.311874
0.29983
0.28429
0.264884
0.24328
0.22377
0.210475
0.203776
0.201165
0.200314
0.200072
0.20002
0.200019
0.200018
0.200012
0.200006
0.200002
0.200001
0.2
0.2
0.2
0.418949
0.417195
0.415478
0.413735
0.41186
0.40969
0.406956
0.403179
0.39724
0.384892
0.37891
0.37396
0.369253
0.364484
0.359546
0.354341
0.34872
0.342433
0.335073
0.326001
0.314283
0.298743
0.278452
0.254249
0.230588
0.213483
0.204722
0.201399
0.200368
0.200086
0.200019
0.200006
0.200004
0.200003
0.200002
0.200001
0.2
0.2
0.2
0.2
0.410282
0.408745
0.407326
0.405975
0.404608
0.403102
0.401261
0.39876
0.394954
0.388065
0.382564
0.377792
0.373334
0.368836
0.364099
0.358997
0.353333
0.346791
0.338877
0.328842
0.315647
0.298072
0.275451
0.249601
0.226191
0.210824
0.203631
0.201064
0.200287
0.200073
0.200018
0.200004
0.200002
0.200001
0.200001
0.2
0.2
0.2
0.2
0.2
0.40026
0.398931
0.397782
0.39677
0.395824
0.394843
0.393679
0.392106
0.389747
0.385862
0.38174
0.377675
0.373532
0.369051
0.364131
0.358599
0.352169
0.344392
0.334593
0.321833
0.304965
0.283165
0.257526
0.232808
0.214956
0.205553
0.20179
0.200534
0.200153
0.200043
0.200012
0.200003
0.200001
0.2
0.2
0.2
0.2
0.2
0.2
0.2
0.387946
0.38681
0.385904
0.385184
0.384583
0.384009
0.383335
0.382387
0.380916
0.37855
0.375473
0.37177
0.367472
0.362507
0.356708
0.349782
0.341257
0.330436
0.316392
0.298146
0.275456
0.250434
0.228107
0.212912
0.205022
0.201744
0.20057
0.200181
0.200057
0.200018
0.200006
0.200002
0.200001
0.2
0.2
0.2
0.2
0.2
0.2
0.2
0.370211
0.369165
0.368403
0.36787
0.367486
0.367145
0.366705
0.365976
0.364711
0.362605
0.359509
0.355371
0.350111
0.343542
0.33532
0.324901
0.311553
0.294562
0.273896
0.251332
0.230716
0.21567
0.20693
0.202753
0.201019
0.200362
0.200127
0.200044
0.200016
0.200006
0.200002
0.200001
0.2
0.2
0.2
0.2
0.2
0.2
0.2
0.2
0.339728
0.338515
0.337659
0.337077
0.336657
0.336247
0.335649
0.334608
0.332814
0.329909
0.325574
0.319533
0.311488
0.301069
0.287925
0.272034
0.254263
0.236697
0.221941
0.211599
0.205509
0.202407
0.200988
0.200388
0.200148
0.200056
0.200021
0.200008
0.200003
0.200001
0.200001
0.2
0.2
0.2
0.2
0.2
0.2
0.2
0.2
0.2
0.286793
0.285208
0.284052
0.283202
0.282495
0.281713
0.28058
0.278763
0.275884
0.271554
0.265475
0.257545
0.247972
0.237385
0.226845
0.217566
0.210436
0.205658
0.202832
0.201326
0.200588
0.200249
0.200102
0.200041
0.200016
0.200006
0.200003
0.200001
0.2
0.2
0.2
0.2
0.2
0.2
0.2
0.2
0.2
0.2
0.2
0.2
0.226776
0.225769
0.225019
0.224438
0.223914
0.223306
0.222453
0.221187
0.219368
0.216946
0.214015
0.210836
0.207768
0.205139
0.203137
0.201775
0.200938
0.200466
0.20022
0.200099
0.200043
0.200018
0.200007
0.200003
0.200001
0.2
0.2
0.2
0.2
0.2
0.2
0.2
0.2
0.2
0.2
0.2
0.2
0.2
0.2
0.2
0.20264
0.202496
0.202386
0.202298
0.202214
0.202117
0.201986
0.201805
0.201567
0.201283
0.20098
0.200693
0.200453
0.200275
0.200155
0.200082
0.200041
0.200019
0.200009
0.200004
0.200002
0.200001
0.2
0.2
0.2
0.2
0.2
0.2
0.2
0.2
0.2
0.2
0.2
0.2
0.2
0.2
0.2
0.2
0.2
0.2
0.794269
0.783367
0.762667
0.737033
0.711048
0.686696
0.664544
0.644608
0.626716
0.610641
0.59615
0.583017
0.571053
0.56011
0.55006
0.540789
0.53219
0.524171
0.516656
0.509573
0.502859
0.496455
0.490304
0.484354
0.478549
0.472834
0.467144
0.461408
0.45554
0.449435
0.442957
0.435922
0.428046
0.418818
0.407155
0.390643
0.364169
0.317681
0.249254
0.206483
0.783375
0.768834
0.747597
0.723668
0.699804
0.677288
0.656572
0.637723
0.620646
0.60518
0.59114
0.578343
0.566639
0.555904
0.546026
0.5369
0.528423
0.520514
0.5131
0.506115
0.499497
0.493192
0.487149
0.481317
0.475646
0.470083
0.464568
0.459027
0.453376
0.447503
0.441267
0.434472
0.426829
0.417814
0.40633
0.389926
0.363416
0.316654
0.248224
0.206245
0.76267
0.747596
0.728077
0.70684
0.685614
0.665313
0.646339
0.628823
0.612751
0.598038
0.584557
0.572185
0.56082
0.550364
0.540722
0.531796
0.523496
0.515751
0.508492
0.501657
0.495193
0.489049
0.48318
0.477541
0.472086
0.466767
0.461525
0.456288
0.450964
0.445432
0.439537
0.43307
0.425726
0.416975
0.405708
0.389445
0.362941
0.315973
0.247505
0.206072
0.737031
0.723667
0.70684
0.68851
0.669937
0.651854
0.63465
0.618505
0.603477
0.589543
0.576646
0.564733
0.553742
0.543602
0.53423
0.525538
0.517453
0.509907
0.502839
0.496193
0.489922
0.483983
0.478338
0.472949
0.467778
0.462782
0.457906
0.453078
0.448196
0.443126
0.437689
0.43165
0.424686
0.416258
0.405247
0.389152
0.362679
0.315538
0.246985
0.205939
0.711046
0.699804
0.685615
0.669937
0.653754
0.637688
0.622113
0.60724
0.593172
0.579949
0.567594
0.556118
0.545497
0.535677
0.526582
0.51814
0.510286
0.502957
0.496098
0.48966
0.483602
0.477892
0.472498
0.467396
0.462556
0.457947
0.45352
0.449205
0.444894
0.440429
0.435595
0.430114
0.423632
0.415596
0.404884
0.388977
0.362539
0.315214
0.246522
0.205812
0.686695
0.677289
0.665314
0.651855
0.637688
0.623343
0.609163
0.595366
0.582085
0.569431
0.557513
0.546401
0.536104
0.526573
0.517741
0.509544
0.501918
0.494802
0.488148
0.481913
0.476066
0.470582
0.465442
0.460635
0.456147
0.451963
0.448053
0.444357
0.440762
0.437085
0.433052
0.428307
0.422444
0.414893
0.404529
0.388824
0.362397
0.314823
0.245937
0.205649
0.664544
0.656573
0.64634
0.634651
0.622113
0.609164
0.596098
0.583117
0.570386
0.558086
0.546412
0.535529
0.525464
0.516163
0.507561
0.499582
0.492157
0.485228
0.478749
0.472686
0.467015
0.461719
0.456797
0.452251
0.448092
0.444334
0.440976
0.43799
0.43528
0.432638
0.429704
0.425967
0.420931
0.413999
0.404053
0.388558
0.362093
0.314144
0.245017
0.205408
0.644609
0.637725
0.628824
0.618506
0.60724
0.595366
0.583117
0.570669
0.558192
0.5459
0.534114
0.523227
0.513255
0.50411
0.495679
0.487862
0.480583
0.47378
0.467409
0.46144
0.455856
0.450656
0.445847
0.441457
0.437525
0.434107
0.431265
0.429041
0.427406
0.426166
0.424849
0.422604
0.418761
0.412683
0.40327
0.388003
0.361427
0.312913
0.243528
0.205048
0.626716
0.620648
0.612753
0.603478
0.593173
0.582085
0.570386
0.558192
0.545582
0.532679
0.519943
0.50867
0.498626
0.489526
0.481168
0.473412
0.466161
0.459348
0.452928
0.446873
0.441174
0.435838
0.430889
0.426375
0.422374
0.419005
0.416435
0.414871
0.414498
0.415298
0.416721
0.417115
0.415301
0.410568
0.401921
0.386941
0.36017
0.310834
0.241243
0.204544
0.610642
0.605181
0.598039
0.589544
0.579949
0.569432
0.558086
0.5459
0.532679
0.517887
0.500881
0.488703
0.478367
0.469111
0.460593
0.452616
0.445057
0.437832
0.430889
0.424192
0.417729
0.411506
0.405552
0.399934
0.394773
0.390283
0.386828
0.385006
0.385735
0.390105
0.398276
0.406091
0.409122
0.407032
0.39967
0.385134
0.358082
0.3076
0.237995
0.203902
0.596151
0.591142
0.584558
0.576647
0.567595
0.557513
0.546412
0.534114
0.519943
0.500881
0.238431
0.230842
0.234405
0.236252
0.236974
0.236988
0.236514
0.235692
0.234622
0.233385
0.23205
0.230688
0.229373
0.228199
0.227292
0.226849
0.22723
0.22923
0.235091
0.252657
0.393278
0.40067
0.404146
0.403182
0.396717
0.382516
0.354996
0.302935
0.233742
0.203167
0.583018
0.578344
0.572186
0.564733
0.556119
0.546402
0.535529
0.523227
0.508671
0.488703
0.230842
0.202419
0.201683
0.201926
0.202075
0.202137
0.202135
0.202087
0.202007
0.201906
0.201794
0.201681
0.201575
0.201485
0.201422
0.201402
0.201456
0.201653
0.202183
0.203579
0.388011
0.396132
0.399735
0.399244
0.393258
0.379133
0.350822
0.296615
0.228624
0.202411
0.571054
0.56664
0.560821
0.553743
0.545498
0.536105
0.525464
0.513256
0.498626
0.478367
0.234405
0.201683
0.200091
0.200059
0.200066
0.200071
0.200072
0.200071
0.200068
0.200064
0.20006
0.200056
0.200051
0.200048
0.200045
0.200045
0.200046
0.200053
0.20007
0.200104
0.382754
0.391781
0.395493
0.395201
0.389392
0.375037
0.345485