/*--------------------------------*- C++ -*----------------------------------*\
| =========                 |                                                 |
| \\      /  F ield         | OpenFOAM: The Open Source CFD Toolbox           |
|  \\    /   O peration     | Version:  1.6                                   |
|   \\  /    A nd           | Web:      www.OpenFOAM.org                      |
|    \\/     M anipulation  |                                                 |
\*---------------------------------------------------------------------------*/
FoamFile
{
    version     2.0;
    format      ascii;
    class       volScalarField;
    location    "0.3";
    object      T;
}
// * * * * * * * * * * * * * * * * * * * * * * * * * * * * * * * * * * * * * //

dimensions      [0 0 0 0 0 0 0];

internalField   nonuniform List<scalar> 
40000
(
7.42568e-06
7.42231e-06
7.42061e-06
7.41936e-06
7.4184e-06
7.4177e-06
7.41724e-06
7.41702e-06
7.41703e-06
7.41727e-06
7.41772e-06
7.41838e-06
7.41924e-06
7.42028e-06
7.42146e-06
7.42277e-06
7.42419e-06
7.42557e-06
7.42689e-06
7.42788e-06
2.24353e-05
2.24259e-05
2.24211e-05
2.24175e-05
2.24146e-05
2.24125e-05
2.24112e-05
2.24105e-05
2.24105e-05
2.24112e-05
2.24126e-05
2.24146e-05
2.24172e-05
2.24203e-05
2.24239e-05
2.24279e-05
2.24321e-05
2.24364e-05
2.24405e-05
2.24438e-05
3.79242e-05
3.79098e-05
3.79022e-05
3.78962e-05
3.78916e-05
3.78881e-05
3.78858e-05
3.78847e-05
3.78848e-05
3.7886e-05
3.78883e-05
3.78917e-05
3.78961e-05
3.79013e-05
3.79074e-05
3.79141e-05
3.79213e-05
3.79287e-05
3.79358e-05
3.79421e-05
5.42268e-05
5.42077e-05
5.41973e-05
5.41892e-05
5.41827e-05
5.41779e-05
5.41748e-05
5.41733e-05
5.41734e-05
5.41751e-05
5.41784e-05
5.41832e-05
5.41894e-05
5.41969e-05
5.42056e-05
5.42151e-05
5.42254e-05
5.42361e-05
5.42465e-05
5.42559e-05
7.1692e-05
7.1668e-05
7.1655e-05
7.16447e-05
7.16365e-05
7.16303e-05
7.16263e-05
7.16244e-05
7.16246e-05
7.16269e-05
7.16313e-05
7.16375e-05
7.16457e-05
7.16555e-05
7.16668e-05
7.16795e-05
7.1693e-05
7.17071e-05
7.17211e-05
7.17339e-05
9.06905e-05
9.06615e-05
9.06458e-05
9.06333e-05
9.06232e-05
9.06158e-05
9.06109e-05
9.06086e-05
9.06089e-05
9.06119e-05
9.06173e-05
9.06252e-05
9.06354e-05
9.06477e-05
9.06619e-05
9.06777e-05
9.06948e-05
9.07125e-05
9.07303e-05
9.07465e-05
0.000111622
0.000111588
0.000111569
0.000111555
0.000111543
0.000111534
0.000111528
0.000111526
0.000111526
0.00011153
0.000111536
0.000111546
0.000111558
0.000111573
0.000111591
0.00011161
0.000111631
0.000111652
0.000111674
0.000111694
0.000134923
0.000134884
0.000134863
0.000134845
0.000134832
0.000134822
0.000134815
0.000134812
0.000134813
0.000134817
0.000134825
0.000134837
0.000134851
0.000134869
0.00013489
0.000134912
0.000134937
0.000134963
0.000134989
0.000135012
0.000161076
0.000161031
0.000161007
0.000160987
0.000160971
0.00016096
0.000160952
0.000160949
0.00016095
0.000160956
0.000160965
0.000160978
0.000160996
0.000161016
0.00016104
0.000161067
0.000161096
0.000161126
0.000161156
0.000161184
0.000190615
0.000190564
0.000190536
0.000190514
0.000190497
0.000190484
0.000190475
0.000190472
0.000190473
0.00019048
0.000190491
0.000190506
0.000190526
0.00019055
0.000190578
0.000190609
0.000190642
0.000190676
0.000190711
0.000190743
0.000224137
0.00022408
0.00022405
0.000224025
0.000224006
0.000223991
0.000223982
0.000223978
0.00022398
0.000223988
0.000224
0.000224018
0.000224041
0.000224068
0.0002241
0.000224135
0.000224173
0.000224212
0.000224252
0.000224288
0.000262315
0.000262252
0.000262218
0.000262191
0.00026217
0.000262154
0.000262144
0.00026214
0.000262143
0.000262151
0.000262166
0.000262186
0.000262212
0.000262243
0.000262278
0.000262318
0.00026236
0.000262405
0.000262449
0.000262491
0.000305906
0.000305837
0.000305799
0.00030577
0.000305746
0.000305729
0.000305719
0.000305715
0.000305718
0.000305728
0.000305744
0.000305767
0.000305796
0.00030583
0.00030587
0.000305914
0.000305962
0.000306011
0.000306061
0.000306107
0.000355763
0.000355688
0.000355648
0.000355616
0.00035559
0.000355572
0.000355561
0.000355557
0.000355561
0.000355572
0.00035559
0.000355616
0.000355648
0.000355686
0.00035573
0.000355779
0.000355832
0.000355887
0.000355942
0.000355992
0.000412856
0.000412775
0.000412731
0.000412697
0.00041267
0.00041265
0.000412639
0.000412635
0.00041264
0.000412652
0.000412673
0.000412701
0.000412736
0.000412778
0.000412827
0.00041288
0.000412938
0.000412999
0.000413059
0.000413114
0.00047828
0.000478193
0.000478147
0.000478111
0.000478082
0.000478062
0.00047805
0.000478047
0.000478052
0.000478066
0.000478089
0.00047812
0.000478158
0.000478204
0.000478257
0.000478315
0.000478378
0.000478443
0.000478509
0.000478569
0.000553278
0.000553187
0.000553139
0.000553101
0.000553071
0.00055305
0.000553039
0.000553036
0.000553043
0.000553058
0.000553083
0.000553116
0.000553158
0.000553208
0.000553264
0.000553327
0.000553394
0.000553465
0.000553535
0.0005536
0.000639263
0.000639168
0.000639118
0.000639079
0.000639049
0.000639028
0.000639017
0.000639015
0.000639023
0.00063904
0.000639067
0.000639103
0.000639148
0.0006392
0.000639261
0.000639327
0.000639399
0.000639474
0.000639548
0.000639617
0.000737836
0.000737738
0.000737687
0.000737648
0.000737618
0.000737598
0.000737587
0.000737587
0.000737596
0.000737615
0.000737644
0.000737682
0.00073773
0.000737785
0.000737848
0.000737918
0.000737993
0.000738072
0.00073815
0.000738223
0.000850814
0.000850716
0.000850666
0.000850627
0.000850599
0.000850579
0.00085057
0.000850571
0.000850582
0.000850603
0.000850634
0.000850674
0.000850723
0.000850781
0.000850846
0.000850918
0.000850996
0.000851077
0.000851158
0.000851233
0.000980264
0.000980168
0.000980119
0.000980083
0.000980056
0.000980039
0.000980031
0.000980034
0.000980047
0.00098007
0.000980102
0.000980143
0.000980194
0.000980253
0.000980319
0.000980393
0.000980472
0.000980554
0.000980636
0.000980712
0.00112853
0.00112844
0.00112839
0.00112836
0.00112834
0.00112832
0.00112832
0.00112832
0.00112834
0.00112836
0.00112839
0.00112844
0.00112849
0.00112855
0.00112861
0.00112869
0.00112876
0.00112885
0.00112893
0.001129
0.00129827
0.00129819
0.00129815
0.00129812
0.0012981
0.00129809
0.00129809
0.0012981
0.00129812
0.00129814
0.00129817
0.00129822
0.00129827
0.00129832
0.00129839
0.00129846
0.00129854
0.00129861
0.00129869
0.00129877
0.00149252
0.00149245
0.00149242
0.00149239
0.00149238
0.00149237
0.00149238
0.00149239
0.00149241
0.00149243
0.00149247
0.00149251
0.00149256
0.00149261
0.00149267
0.00149274
0.00149281
0.00149288
0.00149296
0.00149303
0.0017147
0.00171465
0.00171462
0.00171461
0.0017146
0.0017146
0.00171461
0.00171463
0.00171465
0.00171467
0.00171471
0.00171474
0.00171479
0.00171484
0.00171489
0.00171495
0.00171502
0.00171508
0.00171515
0.00171521
0.00196873
0.00196869
0.00196868
0.00196867
0.00196868
0.00196868
0.0019687
0.00196871
0.00196873
0.00196876
0.00196879
0.00196883
0.00196887
0.00196891
0.00196896
0.00196901
0.00196906
0.00196911
0.00196917
0.00196922
0.00225902
0.00225901
0.00225901
0.00225902
0.00225903
0.00225905
0.00225906
0.00225908
0.00225911
0.00225913
0.00225916
0.00225919
0.00225922
0.00225926
0.00225929
0.00225933
0.00225937
0.00225941
0.00225945
0.00225948
0.00259064
0.00259066
0.00259067
0.00259069
0.00259071
0.00259073
0.00259075
0.00259078
0.0025908
0.00259082
0.00259085
0.00259087
0.00259089
0.00259092
0.00259094
0.00259096
0.00259098
0.002591
0.00259103
0.00259105
0.00296932
0.00296936
0.00296939
0.00296942
0.00296945
0.00296948
0.0029695
0.00296952
0.00296955
0.00296957
0.00296958
0.0029696
0.00296961
0.00296962
0.00296963
0.00296963
0.00296963
0.00296964
0.00296964
0.00296964
0.00340157
0.00340164
0.00340169
0.00340173
0.00340177
0.0034018
0.00340182
0.00340185
0.00340187
0.00340188
0.00340189
0.00340189
0.00340189
0.00340189
0.00340188
0.00340186
0.00340185
0.00340183
0.0034018
0.00340178
0.00389485
0.00389494
0.003895
0.00389505
0.00389509
0.00389512
0.00389515
0.00389517
0.00389518
0.00389519
0.00389519
0.00389518
0.00389517
0.00389514
0.00389512
0.00389508
0.00389505
0.003895
0.00389496
0.00389492
0.0044576
0.00445771
0.00445778
0.00445783
0.00445787
0.0044579
0.00445793
0.00445794
0.00445795
0.00445795
0.00445794
0.00445792
0.00445789
0.00445785
0.0044578
0.00445775
0.00445769
0.00445763
0.00445756
0.0044575
0.00509947
0.0050996
0.00509966
0.00509971
0.00509975
0.00509978
0.0050998
0.0050998
0.0050998
0.00509979
0.00509976
0.00509973
0.00509969
0.00509963
0.00509957
0.0050995
0.00509943
0.00509935
0.00509926
0.00509918
0.00583143
0.00583156
0.00583162
0.00583166
0.00583169
0.00583171
0.00583172
0.00583172
0.0058317
0.00583168
0.00583164
0.00583159
0.00583154
0.00583147
0.0058314
0.00583132
0.00583123
0.00583114
0.00583105
0.00583096
0.00666599
0.00666609
0.00666614
0.00666617
0.00666619
0.0066662
0.00666619
0.00666618
0.00666615
0.00666611
0.00666607
0.00666601
0.00666594
0.00666587
0.00666579
0.0066657
0.00666561
0.00666552
0.00666542
0.00666533
0.00761733
0.00761741
0.00761744
0.00761746
0.00761746
0.00761745
0.00761743
0.0076174
0.00761736
0.00761732
0.00761726
0.0076172
0.00761713
0.00761705
0.00761697
0.00761689
0.0076168
0.00761671
0.00761662
0.00761654
0.00870163
0.00870167
0.00870167
0.00870167
0.00870165
0.00870162
0.00870159
0.00870155
0.00870151
0.00870145
0.0087014
0.00870133
0.00870126
0.00870119
0.00870112
0.00870105
0.00870097
0.0087009
0.00870083
0.00870077
0.00993719
0.00993719
0.00993717
0.00993714
0.00993711
0.00993707
0.00993703
0.00993698
0.00993693
0.00993688
0.00993682
0.00993676
0.00993671
0.00993665
0.00993659
0.00993654
0.00993649
0.00993645
0.00993641
0.00993637
0.0113448
0.0113448
0.0113447
0.0113447
0.0113446
0.0113446
0.0113445
0.0113445
0.0113444
0.0113444
0.0113443
0.0113443
0.0113443
0.0113442
0.0113442
0.0113442
0.0113442
0.0113441
0.0113441
0.0113441
0.012948
0.0129479
0.0129478
0.0129478
0.0129477
0.0129477
0.0129476
0.0129476
0.0129475
0.0129475
0.0129475
0.0129475
0.0129475
0.0129475
0.0129475
0.0129475
0.0129475
0.0129475
0.0129476
0.0129476
0.0147732
0.0147731
0.0147731
0.014773
0.014773
0.0147729
0.0147729
0.0147729
0.0147729
0.0147729
0.0147729
0.0147729
0.0147729
0.0147729
0.014773
0.014773
0.0147731
0.0147732
0.0147732
0.0147733
0.0168506
0.0168505
0.0168504
0.0168504
0.0168503
0.0168503
0.0168503
0.0168503
0.0168504
0.0168504
0.0168504
0.0168505
0.0168505
0.0168506
0.0168507
0.0168508
0.0168509
0.016851
0.0168511
0.0168511
0.0192138
0.0192137
0.0192137
0.0192137
0.0192137
0.0192137
0.0192137
0.0192137
0.0192138
0.0192139
0.019214
0.0192141
0.0192142
0.0192142
0.0192144
0.0192145
0.0192146
0.0192147
0.0192148
0.0192149
0.021901
0.021901
0.0219009
0.021901
0.021901
0.021901
0.0219011
0.0219012
0.0219013
0.0219014
0.0219015
0.0219016
0.0219017
0.0219019
0.021902
0.0219021
0.0219023
0.0219024
0.0219025
0.0219025
0.0249551
0.024955
0.0249551
0.0249551
0.0249552
0.0249552
0.0249553
0.0249554
0.0249556
0.0249557
0.0249558
0.024956
0.0249561
0.0249562
0.0249564
0.0249565
0.0249566
0.0249567
0.0249568
0.0249568
0.0284243
0.0284243
0.0284244
0.0284244
0.0284245
0.0284246
0.0284247
0.0284248
0.0284249
0.0284251
0.0284252
0.0284254
0.0284255
0.0284256
0.0284257
0.0284258
0.0284259
0.028426
0.028426
0.028426
0.032363
0.0323631
0.0323632
0.0323633
0.0323633
0.0323634
0.0323635
0.0323636
0.0323638
0.0323639
0.032364
0.0323641
0.0323642
0.0323643
0.0323644
0.0323645
0.0323645
0.0323645
0.0323645
0.0323645
0.0368327
0.0368327
0.0368328
0.0368329
0.0368329
0.036833
0.0368331
0.0368332
0.0368333
0.0368333
0.0368334
0.0368335
0.0368335
0.0368336
0.0368336
0.0368336
0.0368336
0.0368336
0.0368336
0.0368335
0.041902
0.0419021
0.0419021
0.0419022
0.0419022
0.0419023
0.0419023
0.0419024
0.0419024
0.0419024
0.0419025
0.0419025
0.0419025
0.0419025
0.0419024
0.0419024
0.0419024
0.0419023
0.0419022
0.0419022
0.0476488
0.0476488
0.0476488
0.0476489
0.0476489
0.0476489
0.0476489
0.0476489
0.0476489
0.0476489
0.0476488
0.0476488
0.0476487
0.0476486
0.0476486
0.0476485
0.0476484
0.0476484
0.0476483
0.0476483
0.05416
0.05416
0.05416
0.05416
0.05416
0.05416
0.05416
0.0541599
0.0541599
0.0541598
0.0541598
0.0541597
0.0541596
0.0541594
0.0541593
0.0541592
0.0541591
0.0541591
0.054159
0.054159
0.0615336
0.0615335
0.0615335
0.0615335
0.0615335
0.0615334
0.0615334
0.0615334
0.0615333
0.0615332
0.0615331
0.061533
0.0615329
0.0615327
0.0615326
0.0615325
0.0615324
0.0615324
0.0615324
0.0615324
0.0698789
0.0698789
0.0698789
0.0698789
0.0698789
0.0698788
0.0698788
0.0698788
0.0698787
0.0698787
0.0698786
0.0698784
0.0698783
0.0698782
0.0698781
0.069878
0.0698779
0.0698779
0.0698779
0.0698779
0.0793188
0.0793188
0.0793188
0.0793188
0.0793188
0.0793188
0.0793188
0.0793187
0.0793187
0.0793187
0.0793186
0.0793185
0.0793184
0.0793183
0.0793182
0.0793181
0.079318
0.079318
0.079318
0.079318
0.0899902
0.0899902
0.0899902
0.0899903
0.0899903
0.0899902
0.0899903
0.0899903
0.0899903
0.0899902
0.0899902
0.0899901
0.0899901
0.0899899
0.0899899
0.0899898
0.0899898
0.0899897
0.0899897
0.0899897
0.102046
0.102046
0.102046
0.102046
0.102046
0.102046
0.102046
0.102046
0.102046
0.102046
0.102046
0.102046
0.102046
0.102046
0.102046
0.102046
0.102046
0.102046
0.102046
0.102046
0.115658
0.115658
0.115658
0.115658
0.115658
0.115658
0.115658
0.115658
0.115658
0.115658
0.115658
0.115657
0.115657
0.115657
0.115657
0.115657
0.115657
0.115657
0.115657
0.115657
0.131014
0.131014
0.131014
0.131014
0.131014
0.131014
0.131014
0.131014
0.131014
0.131014
0.131014
0.131014
0.131014
0.131014
0.131014
0.131014
0.131014
0.131014
0.131014
0.131014
0.148328
0.148328
0.148328
0.148328
0.148328
0.148328
0.148328
0.148328
0.148328
0.148328
0.148328
0.148328
0.148328
0.148328
0.148328
0.148328
0.148328
0.148328
0.148328
0.148328
0.167835
0.167835
0.167835
0.167834
0.167834
0.167834
0.167834
0.167834
0.167834
0.167834
0.167834
0.167834
0.167834
0.167834
0.167834
0.167834
0.167834
0.167835
0.167835
0.167835
0.189794
0.189794
0.189794
0.189794
0.189794
0.189794
0.189794
0.189794
0.189793
0.189793
0.189793
0.189793
0.189794
0.189794
0.189794
0.189794
0.189794
0.189794
0.189794
0.189794
0.214497
0.214497
0.214496
0.214496
0.214496
0.214496
0.214496
0.214496
0.214496
0.214496
0.214495
0.214495
0.214496
0.214496
0.214496
0.214496
0.214496
0.214496
0.214496
0.214496
0.242261
0.242261
0.242261
0.242261
0.242261
0.24226
0.24226
0.24226
0.24226
0.24226
0.24226
0.24226
0.24226
0.24226
0.24226
0.24226
0.24226
0.242261
0.242261
0.242261
0.273441
0.273441
0.273441
0.273441
0.273441
0.273441
0.27344
0.27344
0.27344
0.27344
0.27344
0.27344
0.27344
0.27344
0.27344
0.27344
0.27344
0.27344
0.273441
0.273441
0.308426
0.308426
0.308426
0.308426
0.308426
0.308425
0.308425
0.308425
0.308425
0.308425
0.308425
0.308425
0.308425
0.308425
0.308425
0.308425
0.308425
0.308425
0.308425
0.308425
0.347644
0.347644
0.347644
0.347644
0.347644
0.347643
0.347643
0.347643
0.347643
0.347643
0.347643
0.347643
0.347643
0.347643
0.347643
0.347643
0.347643
0.347643
0.347643
0.347644
0.391565
0.391565
0.391565
0.391565
0.391564
0.391564
0.391564
0.391564
0.391564
0.391564
0.391564
0.391564
0.391564
0.391564
0.391564
0.391564
0.391564
0.391564
0.391564
0.391564
0.440703
0.440703
0.440703
0.440703
0.440702
0.440702
0.440702
0.440702
0.440702
0.440702
0.440702
0.440702
0.440702
0.440702
0.440702
0.440702
0.440702
0.440703
0.440703
0.440703
0.49562
0.49562
0.49562
0.49562
0.49562
0.495619
0.495619
0.495619
0.495619
0.495619
0.49562
0.49562
0.49562
0.49562
0.49562
0.49562
0.49562
0.49562
0.49562
0.49562
0.556929
0.556929
0.556929
0.556929
0.556928
0.556928
0.556928
0.556928
0.556928
0.556928
0.556929
0.556929
0.556929
0.556928
0.556928
0.556928
0.556928
0.556928
0.556928
0.556928
0.625294
0.625294
0.625294
0.625294
0.625294
0.625293
0.625294
0.625294
0.625294
0.625294
0.625294
0.625294
0.625294
0.625294
0.625294
0.625293
0.625293
0.625293
0.625293
0.625293
0.701436
0.701436
0.701436
0.701436
0.701436
0.701436
0.701436
0.701436
0.701436
0.701436
0.701436
0.701436
0.701436
0.701436
0.701435
0.701435
0.701435
0.701435
0.701435
0.701435
0.786132
0.786132
0.786132
0.786132
0.786132
0.786132
0.786132
0.786132
0.786132
0.786132
0.786133
0.786132
0.786132
0.786132
0.786132
0.786131
0.786131
0.786132
0.786132
0.786132
0.880218
0.880218
0.880218
0.880218
0.880218
0.880218
0.880218
0.880218
0.880219
0.880219
0.880219
0.880219
0.880218
0.880218
0.880218
0.880218
0.880218
0.880218
0.880218
0.880218
0.984589
0.984589
0.984589
0.984589
0.984589
0.984589
0.984589
0.984589
0.984589
0.984589
0.98459
0.984589
0.984589
0.984589
0.984589
0.984588
0.984589
0.984589
0.984589
0.984589
1.1002
1.1002
1.1002
1.1002
1.1002
1.1002
1.1002
1.1002
1.1002
1.1002
1.1002
1.1002
1.1002
1.1002
1.1002
1.1002
1.1002
1.1002
1.1002
1.1002
1.22806
1.22806
1.22806
1.22806
1.22806
1.22806
1.22806
1.22806
1.22806
1.22806
1.22806
1.22806
1.22806
1.22806
1.22806
1.22806
1.22806
1.22806
1.22806
1.22806
1.36923
1.36923
1.36923
1.36923
1.36923
1.36923
1.36923
1.36923
1.36923
1.36923
1.36923
1.36923
1.36923
1.36923
1.36923
1.36923
1.36923
1.36923
1.36923
1.36923
1.52484
1.52484
1.52484
1.52484
1.52484
1.52484
1.52484
1.52484
1.52484
1.52484
1.52484
1.52484
1.52484
1.52484
1.52484
1.52484
1.52484
1.52484
1.52484
1.52484
1.69604
1.69604
1.69604
1.69604
1.69604
1.69604
1.69604
1.69604
1.69604
1.69604
1.69604
1.69604
1.69604
1.69603
1.69603
1.69603
1.69603
1.69604
1.69604
1.69604
1.88402
1.88402
1.88402
1.88402
1.88402
1.88402
1.88402
1.88402
1.88402
1.88402
1.88402
1.88402
1.88402
1.88402
1.88402
1.88402
1.88402
1.88402
1.88402
1.88402
2.09002
2.09002
2.09002
2.09002
2.09002
2.09002
2.09002
2.09002
2.09002
2.09002
2.09002
2.09002
2.09002
2.09002
2.09002
2.09002
2.09002
2.09002
2.09002
2.09002
2.31525
2.31525
2.31525
2.31525
2.31525
2.31525
2.31525
2.31525
2.31525
2.31525
2.31525
2.31525
2.31525
2.31525
2.31525
2.31525
2.31525
2.31525
2.31525
2.31525
2.56094
2.56094
2.56094
2.56095
2.56095
2.56095
2.56095
2.56095
2.56095
2.56095
2.56095
2.56095
2.56094
2.56094
2.56094
2.56094
2.56095
2.56095
2.56095
2.56095
2.82828
2.82828
2.82828
2.82828
2.82828
2.82828
2.82828
2.82828
2.82829
2.82828
2.82828
2.82828
2.82828
2.82828
2.82828
2.82828
2.82828
2.82828
2.82828
2.82828
3.1184
3.1184
3.1184
3.1184
3.1184
3.1184
3.1184
3.1184
3.1184
3.1184
3.1184
3.1184
3.1184
3.1184
3.1184
3.1184
3.1184
3.1184
3.1184
3.1184
3.43233
3.43233
3.43233
3.43234
3.43234
3.43233
3.43234
3.43233
3.43234
3.43234
3.43234
3.43234
3.43234
3.43233
3.43233
3.43233
3.43233
3.43233
3.43233
3.43233
3.771
3.771
3.771
3.771
3.771
3.771
3.771
3.771
3.771
3.771
3.771
3.771
3.771
3.771
3.771
3.771
3.771
3.771
3.771
3.771
4.13514
4.13514
4.13514
4.13514
4.13514
4.13514
4.13514
4.13514
4.13514
4.13514
4.13514
4.13514
4.13514
4.13514
4.13514
4.13514
4.13514
4.13514
4.13514
4.13514
4.52527
4.52527
4.52527
4.52527
4.52527
4.52527
4.52527
4.52527
4.52527
4.52527
4.52527
4.52527
4.52527
4.52527
4.52527
4.52527
4.52527
4.52527
4.52527
4.52527
4.94166
4.94166
4.94166
4.94166
4.94166
4.94166
4.94166
4.94166
4.94166
4.94166
4.94166
4.94166
4.94166
4.94166
4.94166
4.94166
4.94166
4.94166
4.94166
4.94166
5.38422
5.38422
5.38422
5.38423
5.38423
5.38423
5.38423
5.38423
5.38423
5.38423
5.38422
5.38422
5.38423
5.38423
5.38423
5.38423
5.38423
5.38422
5.38423
5.38422
5.8525
5.8525
5.8525
5.8525
5.8525
5.8525
5.8525
5.8525
5.8525
5.8525
5.8525
5.8525
5.8525
5.8525
5.8525
5.8525
5.8525
5.8525
5.8525
5.8525
6.34556
6.34556
6.34556
6.34556
6.34556
6.34556
6.34556
6.34556
6.34556
6.34556
6.34556
6.34556
6.34556
6.34556
6.34556
6.34556
6.34556
6.34556
6.34556
6.34556
6.86199
6.86199
6.86199
6.86199
6.86199
6.86199
6.86199
6.86199
6.86199
6.86199
6.86199
6.86199
6.86199
6.86199
6.86199
6.86199
6.86199
6.86199
6.86199
6.86199
7.39978
7.39978
7.39978
7.39978
7.39978
7.39978
7.39978
7.39978
7.39978
7.39978
7.39978
7.39978
7.39978
7.39978
7.39978
7.39978
7.39978
7.39978
7.39978
7.39978
7.95632
7.95632
7.95632
7.95632
7.95632
7.95632
7.95632
7.95632
7.95632
7.95632
7.95632
7.95632
7.95632
7.95632
7.95632
7.95632
7.95632
7.95632
7.95632
7.95633
8.5284
8.5284
8.5284
8.5284
8.5284
8.5284
8.5284
8.5284
8.5284
8.5284
8.5284
8.5284
8.5284
8.5284
8.5284
8.5284
8.5284
8.5284
8.5284
8.5284
9.11216
9.11216
9.11216
9.11216
9.11216
9.11216
9.11216
9.11216
9.11216
9.11216
9.11216
9.11216
9.11216
9.11216
9.11216
9.11216
9.11216
9.11216
9.11216
9.11216
9.70322
9.70322
9.70322
9.70322
9.70322
9.70322
9.70322
9.70322
9.70322
9.70322
9.70322
9.70322
9.70322
9.70322
9.70322
9.70322
9.70322
9.70322
9.70322
9.70322
7.42231e-06
7.41942e-06
7.41782e-06
7.4166e-06
7.41565e-06
7.41496e-06
7.4145e-06
7.41428e-06
7.4143e-06
7.41454e-06
7.41499e-06
7.41567e-06
7.41653e-06
7.41757e-06
7.41878e-06
7.42011e-06
7.42152e-06
7.42297e-06
7.42438e-06
7.42554e-06
2.24259e-05
2.24181e-05
2.24135e-05
2.241e-05
2.24072e-05
2.24051e-05
2.24037e-05
2.24031e-05
2.24031e-05
2.24038e-05
2.24052e-05
2.24072e-05
2.24099e-05
2.2413e-05
2.24166e-05
2.24207e-05
2.2425e-05
2.24294e-05
2.24338e-05
2.24378e-05
3.79098e-05
3.78977e-05
3.78905e-05
3.78847e-05
3.78801e-05
3.78767e-05
3.78744e-05
3.78733e-05
3.78734e-05
3.78747e-05
3.7877e-05
3.78804e-05
3.78848e-05
3.78901e-05
3.78962e-05
3.7903e-05
3.79103e-05
3.79179e-05
3.79256e-05
3.79332e-05
5.42077e-05
5.41915e-05
5.41818e-05
5.41738e-05
5.41674e-05
5.41627e-05
5.41595e-05
5.41581e-05
5.41582e-05
5.416e-05
5.41633e-05
5.41681e-05
5.41744e-05
5.41819e-05
5.41906e-05
5.42003e-05
5.42108e-05
5.42217e-05
5.42329e-05
5.42444e-05
7.1668e-05
7.16478e-05
7.16356e-05
7.16254e-05
7.16173e-05
7.16112e-05
7.16072e-05
7.16053e-05
7.16056e-05
7.16079e-05
7.16123e-05
7.16186e-05
7.16268e-05
7.16367e-05
7.16481e-05
7.16609e-05
7.16747e-05
7.16892e-05
7.17042e-05
7.17196e-05
9.06615e-05
9.06371e-05
9.06223e-05
9.061e-05
9.06001e-05
9.05926e-05
9.05878e-05
9.05855e-05
9.05859e-05
9.05889e-05
9.05944e-05
9.06023e-05
9.06126e-05
9.0625e-05
9.06393e-05
9.06553e-05
9.06726e-05
9.06909e-05
9.07099e-05
9.07295e-05
0.000111588
0.000111559
0.000111542
0.000111527
0.000111516
0.000111507
0.000111501
0.000111498
0.000111499
0.000111503
0.000111509
0.000111519
0.000111532
0.000111547
0.000111564
0.000111583
0.000111605
0.000111627
0.00011165
0.000111674
0.000134884
0.000134851
0.00013483
0.000134814
0.0001348
0.00013479
0.000134783
0.000134781
0.000134781
0.000134786
0.000134794
0.000134805
0.00013482
0.000134838
0.000134859
0.000134882
0.000134907
0.000134934
0.000134961
0.00013499
0.000161031
0.000160993
0.00016097
0.000160951
0.000160935
0.000160924
0.000160916
0.000160913
0.000160914
0.00016092
0.000160929
0.000160943
0.00016096
0.000160981
0.000161005
0.000161032
0.000161062
0.000161093
0.000161125
0.000161158
0.000190564
0.000190521
0.000190495
0.000190473
0.000190456
0.000190443
0.000190435
0.000190431
0.000190433
0.000190439
0.00019045
0.000190466
0.000190486
0.00019051
0.000190538
0.000190569
0.000190603
0.000190639
0.000190676
0.000190714
0.00022408
0.000224032
0.000224003
0.000223979
0.00022396
0.000223946
0.000223937
0.000223933
0.000223935
0.000223942
0.000223955
0.000223973
0.000223996
0.000224024
0.000224056
0.000224091
0.000224129
0.00022417
0.000224212
0.000224256
0.000262252
0.000262199
0.000262167
0.000262141
0.000262119
0.000262104
0.000262094
0.00026209
0.000262093
0.000262101
0.000262116
0.000262136
0.000262162
0.000262193
0.000262229
0.000262269
0.000262313
0.000262358
0.000262406
0.000262455
0.000305837
0.000305778
0.000305743
0.000305714
0.000305691
0.000305674
0.000305663
0.00030566
0.000305663
0.000305672
0.000305689
0.000305712
0.000305741
0.000305776
0.000305816
0.000305861
0.000305909
0.00030596
0.000306013
0.000306068
0.000355688
0.000355625
0.000355586
0.000355555
0.00035553
0.000355511
0.0003555
0.000355497
0.000355501
0.000355512
0.00035553
0.000355556
0.000355588
0.000355627
0.000355672
0.000355721
0.000355775
0.000355831
0.00035589
0.00035595
0.000412775
0.000412706
0.000412665
0.000412631
0.000412605
0.000412585
0.000412574
0.00041257
0.000412575
0.000412588
0.000412608
0.000412637
0.000412672
0.000412715
0.000412764
0.000412818
0.000412877
0.000412939
0.000413003
0.000413069
0.000478193
0.00047812
0.000478076
0.00047804
0.000478012
0.000477992
0.00047798
0.000477977
0.000477983
0.000477997
0.00047802
0.000478051
0.00047809
0.000478136
0.000478189
0.000478248
0.000478312
0.00047838
0.000478449
0.000478522
0.000553187
0.00055311
0.000553064
0.000553027
0.000552997
0.000552977
0.000552965
0.000552962
0.000552969
0.000552985
0.00055301
0.000553044
0.000553086
0.000553136
0.000553193
0.000553257
0.000553325
0.000553398
0.000553473
0.00055355
0.000639168
0.000639087
0.00063904
0.000639002
0.000638972
0.000638951
0.00063894
0.000638938
0.000638946
0.000638964
0.000638991
0.000639028
0.000639072
0.000639126
0.000639187
0.000639254
0.000639327
0.000639404
0.000639484
0.000639566
0.000737738
0.000737655
0.000737608
0.000737569
0.000737539
0.000737519
0.000737509
0.000737508
0.000737518
0.000737537
0.000737566
0.000737605
0.000737652
0.000737708
0.000737772
0.000737843
0.00073792
0.000738001
0.000738084
0.000738171
0.000850716
0.000850633
0.000850586
0.000850548
0.000850519
0.0008505
0.000850491
0.000850492
0.000850503
0.000850524
0.000850555
0.000850596
0.000850646
0.000850704
0.00085077
0.000850843
0.000850922
0.000851006
0.000851093
0.000851182
0.000980168
0.000980086
0.000980041
0.000980005
0.000979978
0.000979961
0.000979954
0.000979956
0.000979969
0.000979992
0.000980025
0.000980067
0.000980118
0.000980177
0.000980245
0.000980319
0.0009804
0.000980484
0.000980573
0.000980664
0.00112844
0.00112836
0.00112832
0.00112829
0.00112826
0.00112825
0.00112824
0.00112825
0.00112826
0.00112829
0.00112832
0.00112836
0.00112842
0.00112848
0.00112854
0.00112862
0.0011287
0.00112878
0.00112887
0.00112896
0.00129819
0.00129812
0.00129808
0.00129805
0.00129803
0.00129802
0.00129802
0.00129803
0.00129805
0.00129807
0.00129811
0.00129815
0.0012982
0.00129826
0.00129833
0.0012984
0.00129847
0.00129856
0.00129864
0.00129873
0.00149245
0.00149239
0.00149236
0.00149234
0.00149232
0.00149232
0.00149232
0.00149233
0.00149235
0.00149238
0.00149241
0.00149245
0.0014925
0.00149256
0.00149262
0.00149269
0.00149276
0.00149283
0.00149291
0.001493
0.00171465
0.0017146
0.00171458
0.00171457
0.00171456
0.00171456
0.00171457
0.00171458
0.0017146
0.00171463
0.00171466
0.0017147
0.00171475
0.0017148
0.00171485
0.00171491
0.00171498
0.00171505
0.00171512
0.00171519
0.00196869
0.00196866
0.00196865
0.00196865
0.00196865
0.00196865
0.00196867
0.00196868
0.00196871
0.00196873
0.00196877
0.0019688
0.00196884
0.00196889
0.00196893
0.00196898
0.00196904
0.00196909
0.00196915
0.00196921
0.00225901
0.002259
0.00225901
0.00225901
0.00225902
0.00225904
0.00225905
0.00225908
0.0022591
0.00225913
0.00225915
0.00225918
0.00225922
0.00225925
0.00225929
0.00225933
0.00225937
0.00225941
0.00225945
0.00225949
0.00259066
0.00259067
0.00259069
0.00259071
0.00259073
0.00259075
0.00259077
0.00259079
0.00259082
0.00259084
0.00259086
0.00259089
0.00259091
0.00259093
0.00259096
0.00259098
0.002591
0.00259102
0.00259105
0.00259107
0.00296936
0.0029694
0.00296943
0.00296946
0.00296949
0.00296951
0.00296954
0.00296956
0.00296959
0.00296961
0.00296962
0.00296964
0.00296965
0.00296966
0.00296967
0.00296967
0.00296968
0.00296968
0.00296968
0.00296968
0.00340164
0.0034017
0.00340175
0.00340179
0.00340183
0.00340186
0.00340189
0.00340191
0.00340193
0.00340194
0.00340195
0.00340196
0.00340196
0.00340195
0.00340194
0.00340193
0.00340191
0.00340189
0.00340186
0.00340184
0.00389494
0.00389502
0.00389508
0.00389513
0.00389517
0.0038952
0.00389523
0.00389525
0.00389527
0.00389527
0.00389527
0.00389527
0.00389525
0.00389523
0.0038952
0.00389517
0.00389513
0.00389508
0.00389503
0.00389498
0.00445771
0.00445781
0.00445787
0.00445793
0.00445797
0.004458
0.00445803
0.00445804
0.00445805
0.00445805
0.00445804
0.00445801
0.00445798
0.00445794
0.0044579
0.00445785
0.00445778
0.00445772
0.00445765
0.00445757
0.0050996
0.0050997
0.00509976
0.00509982
0.00509986
0.00509988
0.0050999
0.00509991
0.00509991
0.00509989
0.00509987
0.00509983
0.00509979
0.00509973
0.00509967
0.0050996
0.00509952
0.00509944
0.00509935
0.00509925
0.00583156
0.00583166
0.00583172
0.00583176
0.0058318
0.00583181
0.00583182
0.00583182
0.0058318
0.00583178
0.00583174
0.00583169
0.00583164
0.00583157
0.00583149
0.00583141
0.00583132
0.00583122
0.00583112
0.00583101
0.00666609
0.00666619
0.00666623
0.00666626
0.00666628
0.00666628
0.00666628
0.00666626
0.00666624
0.0066662
0.00666615
0.00666609
0.00666602
0.00666595
0.00666587
0.00666578
0.00666568
0.00666558
0.00666548
0.00666537
0.00761741
0.00761748
0.00761751
0.00761752
0.00761752
0.00761751
0.00761749
0.00761746
0.00761742
0.00761737
0.00761732
0.00761725
0.00761718
0.0076171
0.00761702
0.00761693
0.00761684
0.00761675
0.00761665
0.00761655
0.00870167
0.0087017
0.0087017
0.0087017
0.00870168
0.00870165
0.00870162
0.00870158
0.00870153
0.00870147
0.00870141
0.00870135
0.00870127
0.0087012
0.00870113
0.00870105
0.00870098
0.0087009
0.00870083
0.00870075
0.00993719
0.00993718
0.00993716
0.00993713
0.0099371
0.00993705
0.00993701
0.00993696
0.00993691
0.00993685
0.00993679
0.00993674
0.00993667
0.00993661
0.00993656
0.0099365
0.00993645
0.00993641
0.00993637
0.00993633
0.0113448
0.0113447
0.0113447
0.0113446
0.0113446
0.0113445
0.0113445
0.0113444
0.0113444
0.0113443
0.0113443
0.0113442
0.0113442
0.0113442
0.0113441
0.0113441
0.0113441
0.0113441
0.0113441
0.0113441
0.0129479
0.0129478
0.0129477
0.0129477
0.0129476
0.0129476
0.0129475
0.0129475
0.0129475
0.0129474
0.0129474
0.0129474
0.0129474
0.0129474
0.0129474
0.0129474
0.0129474
0.0129474
0.0129475
0.0129475
0.0147731
0.014773
0.014773
0.0147729
0.0147729
0.0147728
0.0147728
0.0147728
0.0147728
0.0147728
0.0147728
0.0147728
0.0147728
0.0147728
0.0147729
0.0147729
0.014773
0.0147731
0.0147731
0.0147732
0.0168505
0.0168504
0.0168503
0.0168503
0.0168502
0.0168502
0.0168502
0.0168502
0.0168503
0.0168503
0.0168503
0.0168504
0.0168505
0.0168505
0.0168506
0.0168507
0.0168508
0.0168509
0.016851
0.0168511
0.0192137
0.0192136
0.0192136
0.0192136
0.0192136
0.0192136
0.0192136
0.0192137
0.0192137
0.0192138
0.0192139
0.019214
0.0192141
0.0192142
0.0192143
0.0192144
0.0192146