/*--------------------------------*- C++ -*----------------------------------*\
| =========                 |                                                 |
| \\      /  F ield         | OpenFOAM: The Open Source CFD Toolbox           |
|  \\    /   O peration     | Version:  2.1.0                                 |
|   \\  /    A nd           | Web:      www.OpenFOAM.org                      |
|    \\/     M anipulation  |                                                 |
\*---------------------------------------------------------------------------*/
FoamFile
{
    version     2.0;
    format      ascii;
    class       volScalarField;
    location    "28105";
    object      kr_o;
}
// * * * * * * * * * * * * * * * * * * * * * * * * * * * * * * * * * * * * * //

dimensions      [0 0 0 0 0 0 0];

internalField   nonuniform List<scalar> 
15000
(
7.24698e-14
1.82939e-07
8.42148e-06
0.000136902
0.000697433
0.00190355
0.00370319
0.00595097
0.00852802
0.0113541
0.0143737
0.0175448
0.0208332
0.024209
0.0276462
0.0311212
0.0346137
0.038106
0.0415831
0.0450329
0.048446
0.0518149
0.0551346
0.0584023
0.0616171
0.0647801
0.0678927
0.0709559
0.073971
0.0769395
0.0798634
0.0827448
0.0855857
0.088389
0.0911573
0.0938936
0.0966007
0.0992813
0.101939
0.104575
0.107195
0.109799
0.112391
0.114973
0.117546
0.120114
0.122676
0.125236
0.127792
0.130346
0.132897
0.135446
0.13799
0.140531
0.143064
0.14559
0.148106
0.150611
0.153102
0.155579
0.15804
0.160483
0.162908
0.165314
0.1677
0.170068
0.172417
0.174748
0.177063
0.179362
0.181647
0.183919
0.186179
0.18843
0.190673
0.19291
0.195144
0.197375
0.199605
0.201836
0.20407
0.20631
0.208557
0.210813
0.21308
0.215359
0.217652
0.21996
0.222285
0.22463
0.226994
0.229381
0.231793
0.23423
0.236696
0.239191
0.241718
0.244281
0.24688
0.24952
0.252203
0.254933
0.257715
0.260555
0.26346
0.266438
0.269501
0.272658
0.275928
0.279327
0.282879
0.286612
0.290559
0.294761
0.299263
0.304117
0.309378
0.315112
0.321411
0.328426
0.336414
0.345803
0.357281
0.371897
0.39113
0.416643
0.448862
0.484289
0.515495
0.537068
0.549474
0.555922
0.559156
0.560782
0.561608
0.562034
0.562256
0.562373
0.562434
0.562466
0.562483
0.562492
0.562496
0.562498
0.562499
0.5625
0.5625
0.5625
0.5625
0.5625
1.84316e-07
9.75225e-07
3.95062e-05
0.000304908
0.00108679
0.00248282
0.00439951
0.00671065
0.00932025
0.0121626
0.0151899
0.0183642
0.0216538
0.0250301
0.0284676
0.0319432
0.0354368
0.0389309
0.0424107
0.0458641
0.0492811
0.0526545
0.0559788
0.059251
0.0624707
0.0656388
0.0687563
0.0718242
0.0748434
0.0778154
0.0807419
0.0836247
0.0864662
0.0892693
0.0920365
0.0947708
0.0974748
0.100152
0.102805
0.105437
0.10805
0.110648
0.113233
0.115808
0.118374
0.120935
0.123492
0.126045
0.128595
0.131143
0.13369
0.136235
0.138778
0.141316
0.14385
0.146376
0.148894
0.151401
0.153896
0.156378
0.158843
0.161293
0.163724
0.166136
0.16853
0.170905
0.173263
0.175603
0.177926
0.180234
0.182528
0.184809
0.187079
0.189339
0.191592
0.193839
0.196083
0.198325
0.200566
0.202809
0.205057
0.207311
0.209574
0.211848
0.214134
0.216434
0.21875
0.221085
0.22344
0.225817
0.228219
0.230648
0.233106
0.235598
0.238123
0.240687
0.243293
0.245944
0.248644
0.251399
0.254214
0.257096
0.260056
0.263104
0.266254
0.269522
0.272933
0.27651
0.280292
0.284324
0.288664
0.293389
0.29859
0.304377
0.310869
0.318183
0.32643
0.335724
0.346235
0.358297
0.37256
0.390152
0.412692
0.441491
0.475106
0.507477
0.531828
0.546552
0.554323
0.558216
0.560196
0.561232
0.561788
0.56209
0.56226
0.56236
0.562419
0.562453
0.562474
0.562485
0.562492
0.562496
0.562498
0.562499
0.5625
0.5625
0.5625
0.5625
0.5625
0.5625
8.13234e-06
3.86817e-05
0.000203807
0.000735356
0.00180415
0.00340002
0.0054267
0.00779126
0.0104244
0.0132753
0.0163039
0.0194766
0.0227635
0.0261371
0.0295726
0.0330473
0.0365409
0.0400361
0.0435178
0.0469736
0.0503934
0.0537694
0.0570965
0.0603718
0.0635948
0.0667663
0.0698865
0.072956
0.0759755
0.0789464
0.0818702
0.084749
0.0875853
0.0903818
0.0931413
0.0958665
0.0985605
0.101226
0.103867
0.106486
0.109085
0.111669
0.114239
0.116799
0.119352
0.121899
0.124443
0.126983
0.129523
0.132062
0.134601
0.13714
0.139678
0.142213
0.144745
0.147272
0.149791
0.152302
0.154801
0.157287
0.159759
0.162215
0.164653
0.167072
0.169474
0.171856
0.174221
0.176568
0.178898
0.181213
0.183514
0.185802
0.188079
0.190346
0.192607
0.194862
0.197114
0.199365
0.201615
0.203869
0.206128
0.208394
0.210671
0.21296
0.215263
0.217582
0.21992
0.222279
0.224663
0.227072
0.229511
0.231981
0.234487
0.237032
0.23962
0.242254
0.24494
0.247683
0.250489
0.253366
0.256324
0.259374
0.262529
0.26581
0.26924
0.272849
0.276677
0.280777
0.285222
0.290108
0.295565
0.301761
0.308906
0.317242
0.327018
0.338456
0.351734
0.367016
0.38459
0.405095
0.429625
0.458814
0.490471
0.518824
0.538955
0.550697
0.556741
0.559661
0.561037
0.561689
0.562032
0.562223
0.562333
0.562396
0.562433
0.562457
0.562473
0.562483
0.56249
0.562494
0.562496
0.562498
0.562499
0.562499
0.5625
0.5625
0.5625
0.5625
0.5625
0.5625
0.000130648
0.000295159
0.00072458
0.00157862
0.00290582
0.00465913
0.00676779
0.00917012
0.0118176
0.0146712
0.0176973
0.0208656
0.0241479
0.0275179
0.0309508
0.0344243
0.0379181
0.0414146
0.0448983
0.0483564
0.0517786
0.0551571
0.0584867
0.0617647
0.0649904
0.0681637
0.0712842
0.0743521
0.077368
0.0803332
0.0832494
0.0861189
0.0889442
0.091728
0.0944732
0.0971826
0.0998593
0.102506
0.105127
0.107725
0.110302
0.112864
0.115412
0.117951
0.120482
0.123009
0.125533
0.128055
0.130579
0.133104
0.135632
0.138162
0.140693
0.143224
0.145753
0.14828
0.150801
0.153315
0.155818
0.15831
0.160789
0.163251
0.165697
0.168124
0.170533
0.172923
0.175294
0.177647
0.179984
0.182305
0.184611
0.186904
0.189187
0.19146
0.193726
0.195987
0.198245
0.200502
0.202761
0.205022
0.20729
0.209567
0.211855
0.214157
0.216475
0.218812
0.221171
0.223554
0.225966
0.228407
0.230883
0.233395
0.23595
0.238551
0.241202
0.24391
0.246681
0.249522
0.252443
0.255453
0.258568
0.261803
0.265182
0.268732
0.272494
0.276517
0.280871
0.285654
0.291001
0.297098
0.304203
0.312651
0.322851
0.335256
0.350293
0.36828
0.38935
0.413475
0.440519
0.469852
0.4991
0.523986
0.541451
0.551827
0.557331
0.560059
0.561358
0.561959
0.562228
0.562339
0.562401
0.562439
0.562461
0.562474
0.562482
0.562487
0.562491
0.562494
0.562496
0.562497
0.562498
0.562499
0.562499
0.5625
0.5625
0.5625
0.5625
0.5625
0.5625
0.5625
0.000662969
0.00104566
0.00176114
0.00287422
0.00437942
0.00623578
0.00839712
0.0108228
0.0134778
0.0163309
0.0193532
0.0225169
0.0257952
0.0291624
0.0325942
0.036068
0.0395635
0.0430627
0.0465499
0.0500117
0.0534376
0.0568198
0.060153
0.0634343
0.0666626
0.0698365
0.0729551
0.0760185
0.079027
0.0819824
0.0848862
0.0877412
0.0905498
0.0933148
0.0960392
0.0987259
0.101378
0.103999
0.106591
0.10916
0.111708
0.114239
0.116757
0.119266
0.121768
0.124267
0.126764
0.129263
0.131766
0.134273
0.136785
0.139303
0.141824
0.144349
0.146876
0.149401
0.151924
0.154441
0.15695
0.159449
0.161935
0.164406
0.16686
0.169296
0.171713
0.17411
0.176488
0.178848
0.18119
0.183516
0.185826
0.188123
0.19041
0.192687
0.194957
0.197222
0.199484
0.201746
0.204009
0.206276
0.208551
0.210836
0.213133
0.215447
0.217778
0.220131
0.22251
0.224917
0.227355
0.22983
0.232343
0.234899
0.237503
0.240162
0.242881
0.245668
0.248531
0.251479
0.254524
0.257683
0.260973
0.26442
0.268057
0.27193
0.276095
0.280639
0.28568
0.291384
0.297994
0.30585
0.315422
0.32731
0.342219
0.360858
0.383744
0.410915
0.441555
0.47352
0.503114
0.526558
0.542478
0.552006
0.557234
0.559946
0.561301
0.561956
0.562262
0.562399
0.562455
0.56247
0.56248
0.562487
0.562492
0.562494
0.562495
0.562496
0.562497
0.562498
0.562499
0.562499
0.562499
0.562499
0.5625
0.5625
0.5625
0.5625
0.5625
0.5625
0.5625
0.5625
0.00180516
0.00237819
0.00329572
0.00456875
0.00617863
0.00809513
0.0102874
0.0127265
0.0153852
0.0182374
0.0212572
0.0244185
0.0276956
0.0310631
0.0344969
0.0379744
0.041475
0.0449804
0.0484742
0.0519429
0.0553757
0.0587646
0.0621039
0.0653906
0.068622
0.0717957
0.0749107
0.0779666
0.0809643
0.0839054
0.0867923
0.0896273
0.0924135
0.0951536
0.0978505
0.100507
0.103127
0.105714
0.10827
0.110801
0.113311
0.115803
0.118282
0.120751
0.123216
0.125679
0.128143
0.130611
0.133087
0.13557
0.138063
0.140565
0.143075
0.145592
0.148114
0.150638
0.153163
0.155685
0.158201
0.160708
0.163204
0.165685
0.168149
0.170595
0.173021
0.175427
0.177812
0.180178
0.182524
0.184854
0.187167
0.189468
0.191756
0.194036
0.196308
0.198575
0.20084
0.203104
0.20537
0.20764
0.209919
0.21221
0.214515
0.216837
0.219181
0.221549
0.223946
0.226376
0.228842
0.23135
0.233902
0.236502
0.239158
0.241879
0.244671
0.247542
0.250504
0.253569
0.256754
0.260078
0.26357
0.267263
0.271208
0.275471
0.280144
0.28536
0.291315
0.298291
0.306703
0.317139
0.330388
0.347425
0.369279
0.396692
0.429457
0.465359
0.499424
0.525943
0.542847
0.552231
0.557214
0.559822
0.561173
0.561863
0.562207
0.562373
0.56245
0.562483
0.562491
0.562499
0.5625
0.5625
0.5625
0.5625
0.5625
0.562498
0.562499
0.562499
0.5625
0.5625
0.5625
0.5625
0.5625
0.5625
0.5625
0.5625
0.5625
0.5625
0.5625
0.5625
0.0035011
0.00419461
0.00522674
0.0065864
0.00825285
0.0102028
0.0124129
0.0148604
0.0175225
0.0203762
0.0233973
0.0265608
0.0298417
0.0332148
0.0366561
0.0401428
0.0436542
0.0471712
0.0506772
0.0541583
0.0576034
0.0610039
0.064354
0.0676491
0.070885
0.0740586
0.0771685
0.0802144
0.0831976
0.0861202
0.0889849
0.0917947
0.0945525
0.0972613
0.0999242
0.102544
0.105124
0.107668
0.11018
0.112664
0.115125
0.117568
0.119998
0.122419
0.124837
0.127255
0.129677
0.132107
0.134548
0.137002
0.13947
0.141952
0.144448
0.146955
0.149472
0.151995
0.154523
0.157051
0.159576
0.162094
0.164601
0.167095
0.169572
0.17203
0.174467
0.176883
0.179276
0.181647
0.183998
0.186331
0.188647
0.190949
0.193238
0.195518
0.197791
0.200059
0.202324
0.204588
0.206855
0.209127
0.211408
0.213702
0.216012
0.218341
0.220694
0.223076
0.225491
0.227943
0.230438
0.232978
0.235569
0.238218
0.24093
0.243716
0.246585
0.249548
0.252619
0.255814
0.259155
0.262669
0.266394
0.27038
0.274697
0.279445
0.284766
0.290869
0.298069
0.306832
0.317842
0.332052
0.350693
0.375125
0.406325
0.443695
0.483157
0.517034
0.539624
0.551753
0.55745
0.559975
0.561204
0.561837
0.562168
0.56234
0.562427
0.562469
0.562489
0.562497
0.5625
0.5625
0.5625
0.5625
0.5625
0.5625
0.5625
0.5625
0.5625
0.5625
0.5625
0.5625
0.5625
0.5625
0.5625
0.5625
0.5625
0.5625
0.5625
0.5625
0.5625
0.5625
0.00560206
0.00636404
0.00745628
0.00886101
0.010558
0.0125274
0.0147499
0.0172057
0.0198746
0.022735
0.0257638
0.0289368
0.032229
0.0356155
0.0390723
0.0425765
0.0461067
0.0496436
0.0531701
0.0566719
0.0601374
0.0635575
0.0669252
0.0702333
0.0734763
0.0766506
0.0797543
0.0827878
0.0857527
0.0886521
0.0914893
0.094268
0.0969915
0.0996628
0.102285
0.10486
0.107393
0.109885
0.112343
0.114769
0.117171
0.119554
0.121923
0.124285
0.126644
0.129007
0.131377
0.13376
0.136159
0.138576
0.141013
0.143471
0.145948
0.148443
0.150954
0.153477
0.156008
0.158545
0.161082
0.163614
0.166137
0.168647
0.171141
0.173614
0.176065
0.178491
0.180893
0.18327
0.185626
0.187961
0.190279
0.192581
0.194871
0.197151
0.199423
0.20169
0.203953
0.206215
0.208481
0.210752
0.213032
0.215326
0.217638
0.219972
0.222333
0.224726
0.227157
0.229631
0.232152
0.234726
0.23736
0.24006
0.24283
0.245687
0.248641
0.251707
0.2549
0.258241
0.26176
0.265493
0.269493
0.273831
0.278608
0.28397
0.290136
0.297434
0.306363
0.31767
0.332436
0.352113
0.378389
0.412506
0.453455
0.495176
0.527912
0.547155
0.556223
0.559988
0.561452
0.561962
0.562212
0.562348
0.562421
0.562461
0.562482
0.562493
0.562497
0.562499
0.5625
0.5625
0.5625
0.5625
0.5625
0.5625
0.5625
0.5625
0.5625
0.5625
0.5625
0.5625
0.5625
0.5625
0.5625
0.5625
0.5625
0.5625
0.5625
0.5625
0.5625
0.5625
0.00798394
0.00878512
0.00991025
0.0113404
0.0130567
0.0150414
0.017277
0.0197455
0.022428
0.0253035
0.0283495
0.031542
0.034856
0.0382668
0.0417501
0.0452829
0.0488433
0.0524115
0.0559703
0.0595049
0.063003
0.0664542
0.0698484
0.0731764
0.0764312
0.0796083
0.0827056
0.085724
0.0886664
0.0915371
0.0943407
0.097082
0.0997647
0.102392
0.104967
0.107491
0.109967
0.112398
0.11479
0.117148
0.119478
0.121787
0.124082
0.126371
0.128659
0.130953
0.13326
0.135583
0.137929
0.1403
0.142699
0.145127
0.147582
0.150062
0.152566
0.155089
0.157628
0.160175
0.162727
0.165278
0.167822
0.170354
0.172869
0.175362
0.17783
0.18027
0.182682
0.185068
0.187428
0.189766
0.192084
0.194386
0.196675
0.198953
0.201223
0.203487
0.205748
0.208007
0.210269
0.212536
0.214812
0.217103
0.219413
0.221748
0.224115
0.226518
0.228963
0.231457
0.234005
0.236614
0.239292
0.242047
0.244883
0.247818
0.250865
0.254042
0.25737
0.260878
0.264602
0.268595
0.272926
0.277696
0.283052
0.289213
0.29651
0.305454
0.316824
0.331785
0.351968
0.379366
0.415551
0.459241
0.502579
0.534262
0.551159
0.558359
0.561068
0.562023
0.562346
0.562408
0.562447
0.56247
0.562484
0.562492
0.562496
0.562498
0.562499
0.5625
0.5625
0.5625
0.5625
0.5625
0.5625
0.5625
0.5625
0.5625
0.5625
0.5625
0.5625
0.5625
0.5625
0.5625
0.5625
0.5625
0.5625
0.5625
0.5625
0.5625
0.5625
0.5625
0.0105605
0.0113868
0.0125335
0.0139825
0.0157166
0.0177194
0.0199744
0.0224647
0.0251714
0.0280743
0.0311504
0.0343757
0.0377256
0.0411749
0.0446994
0.0482755
0.0518811
0.0554965
0.0591041
0.0626886
0.0662365
0.0697341
0.0731678
0.0765262
0.0798002
0.0829841
0.0860756
0.0890763
0.0919909
0.094826
0.0975887
0.100286
0.102921
0.105498
0.108018
0.110483
0.112894
0.115254
0.117568
0.119842
0.122085
0.124304
0.126509
0.128708
0.130908
0.133118
0.135345
0.137595
0.139874
0.142188
0.14454
0.14693
0.149357
0.151821
0.154317
0.156841
0.159388
0.161951
0.164524
0.167099
0.169671
0.172232
0.174775
0.177294
0.179785
0.182244
0.18467
0.187065
0.18943
0.19177
0.194088
0.196389
0.198676
0.200952
0.20322
0.20548
0.207737
0.209992
0.212247
0.214507
0.216776
0.21906
0.221365
0.223698
0.226066
0.228476
0.230933
0.233446
0.236021
0.238667
0.241392
0.244205
0.247117
0.250134
0.253283
0.256585
0.260067
0.263767
0.267734
0.272036
0.276773
0.282087
0.288193
0.295418
0.304267
0.315526
0.3304
0.350643
0.378524
0.416012
0.461805
0.506609
0.537793
0.553283
0.559399
0.561526
0.562213
0.562423
0.562483
0.562498
0.5625
0.5625
0.5625
0.5625
0.5625
0.5625
0.5625
0.5625
0.5625
0.5625
0.5625
0.5625
0.5625
0.5625
0.5625
0.5625
0.5625
0.5625
0.5625
0.5625
0.5625
0.5625
0.5625
0.5625
0.5625
0.5625
0.5625
0.5625
0.5625
0.5625
0.0132704
0.014116
0.015282
0.0167517
0.0185091
0.0205386
0.0228245
0.02535
0.0280964
0.0310428
0.0341661
0.0374421
0.0408458
0.0443521
0.0479363
0.0515749
0.0552459
0.05893
0.0626094
0.0662681
0.0698888
0.0734536
0.076946
0.0803509
0.0836567
0.0868552
0.0899431
0.0929231
0.0958029
0.0985934
0.101306
0.103949
0.106529
0.109049
0.111509
0.113907
0.116242
0.118518
0.120739
0.122913
0.12505
0.12716
0.129253
0.13134
0.133431
0.135536
0.137662
0.139819
0.142016
0.144257
0.146549
0.148892
0.151286
0.153728
0.156216
0.158743
0.161302
0.163886
0.166486
0.169094
0.171703
0.174302
0.176883
0.179439
0.181972
0.184474
0.186934
0.189345
0.191719
0.194062
0.196381
0.198681
0.200966
0.203239
0.205503
0.20776
0.210011
0.212256
0.2145
0.216745
0.218999
0.221268
0.22356
0.225881
0.228242
0.23065
0.233114
0.235642
0.238242
0.240924
0.243697
0.246571
0.24956
0.252673
0.255938
0.259382
0.263042
0.266968
0.271225
0.275908
0.281156
0.287177
0.294285
0.302969
0.314003
0.328596
0.348575
0.376432
0.414574
0.46196
0.508283
0.539593
0.5544
0.559929
0.561743
0.562292
0.562447
0.562488
0.562498
0.5625
0.5625
0.5625
0.5625
0.5625
0.5625
0.5625
0.5625
0.5625
0.5625
0.5625
0.5625
0.5625
0.5625
0.5625
0.5625
0.5625
0.5625
0.5625
0.5625
0.5625
0.5625
0.5625
0.5625
0.5625
0.5625
0.5625
0.5625
0.5625
0.5625
0.5625
0.0160654
0.0169297
0.0181186
0.0196165
0.0214081
0.0234785
0.025812
0.0283917
0.0311981
0.0342095
0.0374022
0.0407515
0.0442319
0.0478183
0.0514861
0.0552122
0.0589757
0.0627579
0.0665411
0.0703056
0.07403
0.0776928
0.0812732
0.0847514
0.0881105
0.0913378
0.0944279
0.0973841
0.100219
0.102951
0.105598
0.108175
0.110691
0.113147
0.115539
0.117863
0.120114
0.122291
0.124401
0.126453
0.128457
0.13043
0.132383
0.134331
0.136285
0.138256
0.140255
0.142294
0.144384
0.146533
0.148747
0.151031
0.153382
0.1558
0.158277
0.160808
0.163383
0.165994
0.168631
0.171283
0.173941
0.176594
0.179229
0.181862
0.184467
0.187026
0.189529
0.191972
0.194352
0.196695
0.199011
0.201307
0.20359
0.205863
0.208127
0.210382
0.212629
0.214867
0.217098
0.219328
0.221563
0.223809
0.226078
0.22838
0.230724
0.233123
0.235586
0.238123
0.240744
0.243459
0.246279
0.249217
0.252289
0.255514
0.2589
0.262505
0.266375
0.270572
0.275187
0.280354
0.28627
0.293235
0.30172
0.312474
0.326686
0.34621
0.373703
0.41201
0.460572
0.508456
0.540361
0.554965
0.560206
0.561853
0.56233
0.562459
0.562491
0.562498
0.5625
0.5625
0.5625
0.5625
0.5625
0.5625
0.5625
0.5625
0.5625
0.5625
0.5625
0.5625
0.5625
0.5625
0.5625
0.5625
0.5625
0.5625
0.5625
0.5625
0.5625
0.5625
0.5625
0.5625
0.5625
0.5625
0.5625
0.5625
0.5625
0.5625
0.5625
0.5625
0.0189051
0.019791
0.0210106
0.0225487
0.0243907
0.0265217
0.0289258
0.0315848
0.0344778
0.0375819
0.0408721
0.044323
0.0479089
0.0516046
0.0553864
0.059233
0.0631257
0.0670464
0.0709746
0.0748874
0.0787601
0.0825674
0.0862828
0.0898791
0.0933306
0.0966156
0.0997215
0.102651
0.105424
0.108072
0.11063
0.113121
0.115559
0.117943
0.120264
0.122508
0.124664
0.126727
0.128701
0.130598
0.132435
0.134231
0.136007
0.137777
0.139555
0.141354
0.143188
0.145072
0.147022
0.14905
0.151164
0.15337
0.155667
0.158051
0.160517
0.163053
0.16565
0.168296
0.170982
0.173694
0.176419
0.179146
0.181891
0.184629
0.187332
0.189978
0.192548
0.195029
0.197418
0.19976
0.202071
0.204364
0.206646
0.208922
0.21119
0.21345
0.215696
0.217929
0.220149
0.22236
0.224569
0.226786
0.229022
0.231292
0.23361
0.23599
0.238444
0.240985
0.243623
0.24637
0.249238
0.252243
0.255403
0.258744
0.262288
0.266083
0.270202
0.274732
0.279801
0.285599
0.292416
0.300699
0.311167
0.324979
0.343989
0.370975
0.409181
0.458624
0.507976
0.540637
0.555255
0.560355
0.561912
0.56235
0.562465
0.562493
0.562499
0.5625
0.5625
0.5625
0.5625
0.5625
0.5625
0.5625
0.5625
0.5625
0.5625
0.5625
0.5625
0.5625
0.5625
0.5625
0.5625
0.5625
0.5625
0.5625
0.5625
0.5625
0.5625
0.5625
0.5625
0.5625
0.5625
0.5625
0.5625
0.5625
0.5625
0.5625
0.5625
0.5625
0.021753
0.0226663
0.0239278
0.025523
0.0274373
0.0296555
0.0321602
0.0349312
0.0379454
0.0411774
0.0446007
0.0481888
0.0519158
0.0557577
0.0596935
0.063705
0.0677755
0.0718855
0.0760131
0.0801343
0.0842225
0.0882482
0.0921777
0.0959786
0.0997315
0.103282
0.10645
0.109359
0.112043
0.114557
0.11697
0.119328
0.121655
0.123948
0.126187
0.128338
0.130375
0.132284
0.134067
0.135741
0.137333
0.138875
0.140394
0.141911
0.143441
0.144999
0.146602
0.148269
0.150023
0.15188
0.153855
0.155954
0.158176
0.160515
0.162962
0.165504
0.168129
0.170823
0.173572
0.176363
0.179182
0.182029
0.184924
0.187821
0.190691
0.193497
0.196196
0.19875
0.201162
0.203501
0.205802
0.208089
0.210374
0.212661
0.214946
0.21722
0.219476
0.221709
0.223916
0.226102
0.228273
0.23044
0.232621
0.234836
0.237104
0.239445
0.241875
0.244407
0.247054
0.249829
0.252744
0.255818
0.259075
0.262547
0.266279
0.270296
0.274727
0.27969
0.285367
0.292037
0.300134
0.310351
0.32382
0.34239
0.368941
0.407076
0.457301
0.507827
0.540959
0.555497
0.560462
0.56195
0.562362
0.562468
0.562493
0.562499
0.5625
0.5625
0.5625
0.5625
0.5625
0.5625
0.5625
0.5625
0.5625
0.5625
0.5625
0.5625
0.5625
0.5625
0.5625
0.5625
0.5625
0.5625
0.5625
0.5625
0.5625
0.5625
0.5625
0.5625
0.5625
0.5625
0.5625
0.5625
0.5625
0.5625
0.5625
0.5625
0.5625
0.5625
0.0245763
0.0255249
0.0268432
0.0285175
0.0305328
0.0328729
0.0355179
0.0384439
0.0416238
0.0450287
0.0486296
0.0523991
0.0563124
0.0603484
0.0644907
0.0687246
0.0730333
0.0773991
0.0818026
0.0862216
0.0906308
0.0949978
0.0994771
0.104214
0.108947
0.113499
0.117531
0.120371
0.122781
0.124893
0.126881
0.128859
0.130884
0.132957
0.135023
0.137002
0.13882
0.14044
0.141859
0.143103
0.144224
0.145285
0.146336
0.147406
0.14851
0.149661
0.150878
0.152188
0.153622
0.155207
0.156961
0.158891
0.160995
0.163261
0.165674
0.168219
0.170876
0.173628
0.176459
0.179355
0.1823
0.185348
0.18846
0.19162
0.194798
0.197935
0.200924
0.20364
0.206067
0.208391
0.210668
0.212942
0.215235
0.217553
0.219882
0.2222
0.22449
0.226741
0.228944
0.231099
0.233211
0.235295
0.237377
0.239487
0.241658
0.243916
0.246284
0.248778
0.251411
0.254195
0.257146
0.260285
0.263644
0.267263
0.271205
0.275551
0.280371
0.285911
0.292442
0.300387
0.31043
0.323689
0.342028
0.368462
0.406949
0.458158
0.509253
0.541941
0.555915
0.5606
0.561989
0.562372
0.56247
0.562494
0.562499
0.5625
0.5625
0.5625
0.5625
0.5625
0.5625
0.5625
0.5625
0.5625
0.5625
0.5625
0.5625
0.5625
0.5625
0.5625
0.5625
0.5625
0.5625
0.5625
0.5625
0.5625
0.5625
0.5625
0.5625
0.5625
0.5625
0.5625
0.5625
0.5625
0.5625
0.5625
0.5625
0.5625
0.5625
0.5625
0.0273445
0.0283384
0.0297325
0.031514
0.0336681
0.0361763
0.0390145
0.0421524
0.0455562
0.0491914
0.0530261
0.057033
0.0611903
0.0654829
0.0698981
0.074424
0.0790492
0.0837629
0.0885543
0.0934106
0.0983144
0.103572
0.109468
0.115866
0.122835
0.12991
0.136531
0.139986
0.141827
0.142939
0.14387
0.144925
0.146273
0.14793
0.149766
0.151552
0.153056
0.154174
0.154893
0.155259
0.155385
0.155435
0.155525
0.155704
0.15598
0.156355
0.156844
0.157486
0.158329
0.159417
0.160775
0.162406
0.164299
0.166431
0.168775
0.171304
0.173989
0.176809
0.179742
0.182775
0.185895
0.18921
0.192677
0.196307
0.200102
0.204002
0.207738
0.210839
0.213296
0.215566
0.217769
0.219998
0.222305
0.224698
0.227142
0.229583
0.231979
0.234302
0.23653
0.238653
0.240668
0.24259
0.244459
0.246337
0.248282
0.250343
0.25255
0.254926
0.257481
0.260226
0.263177
0.266358
0.26981
0.27359
0.277785
0.282522
0.28797
0.294347
0.302182
0.312163
0.325441
0.343953
0.370932
0.410723
0.46334
0.513712
0.544193
0.55671
0.560833
0.56205
0.562386
0.562473
0.562494
0.562499
0.5625
0.5625
0.5625
0.5625
0.5625
0.5625
0.5625
0.5625
0.5625
0.5625
0.5625
0.5625
0.5625
0.5625
0.5625
0.5625
0.5625
0.5625
0.5625
0.5625
0.5625
0.5625
0.5625
0.5625
0.5625
0.5625
0.5625
0.5625
0.5625
0.5625
0.5625
0.5625
0.5625
0.5625
0.5625
0.5625
0.0300392
0.0310971
0.0325945
0.0345185
0.0368511
0.0395676
0.0426356
0.0460758
0.0498169
0.0537576
0.0578981
0.0622139
0.0666896
0.0713145
0.0760818
0.0809891
0.0860376
0.0912331
0.0965851
0.102107
0.108048
0.115347
0.12402
0.134166
0.14614
0.157994
0.170804
0.175429
0.176058
0.174498
0.172779
0.171641
0.171541
0.172577
0.17454
0.1778
0.179078
0.179436
0.178843
0.177367
0.175269
0.173079
0.171127
0.169496
0.16814
0.167
0.166067
0.165394
0.16508
0.165206
0.165807
0.166877
0.168376
0.170254
0.172455
0.174927
0.177626
0.180516
0.183574
0.186785
0.19022
0.193912
0.197916
0.202328
0.207306
0.212898
0.218492
0.222322
0.224847
0.226901
0.228856
0.230921
0.233231
0.235815
0.238578
0.241357
0.244053
0.246606
0.24897
0.2511
0.252963
0.254559
0.255961
0.257314
0.258744
0.260348
0.262185
0.264275
0.266623
0.269231
0.272108
0.275281
0.278803
0.282762
0.287293
0.292599
0.298989
0.306928
0.317088
0.330805
0.350302
0.379144
0.421698
0.475481
0.522265
0.547972
0.557957
0.561186
0.562141
0.562407
0.562477
0.562495
0.562499
0.5625
0.5625
0.5625
0.5625
0.5625
0.5625
0.5625
0.5625
0.5625
0.5625
0.5625
0.5625
0.5625
0.5625
0.5625
0.5625
0.5625
0.5625
0.5625
0.5625
0.5625
0.5625
0.5625
0.5625
0.5625
0.5625
0.5625
0.5625
0.5625
0.5625
0.5625
0.5625
0.5625
0.5625
0.5625
0.5625
0.5625
0.032642
0.0337914
0.035434
0.0375572
0.0401387
0.0431442
0.0465307
0.0502921
0.0543606
0.0586256
0.0634131
0.0681319
0.0730136
0.0780601
0.0832795
0.088689
0.094315
0.100197
0.106391
0.112975
0.121642
0.132952
0.147614
0.163778
0.183258
0.197971
0.216335
0.220299
0.219977
0.214057
0.208617
0.204584
0.202851
0.203918
0.210039
0.219091
0.222849
0.222882
0.220658
0.216072
0.209458
0.202737
0.196949
0.192158
0.188041
0.184305
0.180835
0.177726
0.175224
0.173534
0.172733
0.172781
0.173578
0.175003
0.176941
0.179292
0.181977
0.184941
0.18815
0.191592
0.195382
0.199591
0.204368
0.209983
0.217031
0.225837
0.23518
0.239669
0.242132
0.243416
0.244685
0.24629
0.248568
0.251626
0.255798
0.259815
0.263222
0.266363
0.269154
0.271476
0.273191
0.27421
0.274627
0.274875
0.275235
0.275923
0.277043
0.278607
0.280588
0.282954
0.285695
0.288837
0.292457
0.296701
0.301808
0.308148
0.316296
0.327187
0.342381
0.364426
0.397097
0.443096
0.495115
0.533917
0.55264
0.559452
0.561612
0.562253
0.562434
0.562483
0.562496
0.562499
0.5625
0.5625
0.5625
0.5625
0.5625
0.5625
0.5625
0.5625
0.5625
0.5625
0.5625
0.5625
0.5625
0.5625
0.5625
0.5625
0.5625
0.5625
0.5625
0.5625
0.5625
0.5625
0.5625
0.5625
0.5625
0.5625
0.5625
0.5625
0.5625
0.5625
0.5625
0.5625
0.5625
0.5625
0.5625
0.5625
0.5625
0.5625
0.0351353
0.0364104
0.0382525
0.0406518
0.0435802
0.0469877
0.0508117
0.0550119
0.0595111
0.0642251
0.0694031
0.0747212
0.0804432
0.0860344
0.0918418
0.0979276
0.104368
0.111272
0.1188
0.128259
0.141733
0.161511
0.186031
0.205939
0.230006
0.237364
0.243577
0.288555
0.306127
0.23391
0.229889
0.226555
0.225422
0.228287
0.239574
0.255132
0.260987
0.263389
0.26272
0.258202
0.247994
0.23693
0.227925
0.22078
0.21449
0.208276
0.20182
0.195313
0.189446
0.184876
0.181856
0.18032
0.180051
0.180803
0.182356
0.184531
0.187192
0.190248
0.193648
0.197388
0.201607
0.206436
0.212149
0.219296
0.229438
0.242593
0.256182
0.260761
0.262971
0.262484
0.262682
0.263545
0.265855
0.270032
0.27997
0.286546
0.291679
0.296041
0.299957
0.303152
0.305188
0.305515
0.303964
0.302105
0.300472
0.299562
0.299561
0.300414
0.301981
0.304145
0.306844
0.310099
0.314037
0.318943
0.32532
0.333954
0.346073
0.363642
0.389597
0.426991
0.474199
0.518487
0.545615
0.556919
0.560786
0.561995
0.562356
0.56246
0.562489
0.562497
0.562499
0.5625
0.5625
0.5625
0.5625
0.5625
0.5625
0.5625
0.5625
0.5625
0.5625
0.5625
0.5625
0.5625
0.5625
0.5625
0.5625
0.5625
0.5625
0.5625
0.5625
0.5625
0.5625
0.5625
0.5625
0.5625
0.5625
0.5625
0.5625
0.5625
0.5625
0.5625
0.5625
0.5625
0.5625
0.5625
0.5625
0.5625
0.5625
0.5625
0.0375067
0.0389502
0.0410644
0.0438486
0.047268
0.0512443
0.055674
0.0604713
0.0655486
0.0708558
0.0765374
0.0823762
0.0886796
0.0957057
0.102305
0.109339
0.11699
0.125516
0.135335
0.15122
0.173485
0.206772
0.239415
0.252094
0.261864
0.455057
0.557682
0.558927
0.552157
0.530467
0.31217
0.243269
0.242031
0.247384
0.266833
0.27635
0.374826
0.528117
0.499259
0.333463
0.261472
0.254029
0.248254
0.243733
0.239152
0.233402
0.225778
0.216321
0.206506
0.1983
0.192484
0.188994
0.187449
0.18743
0.188575
0.190598
0.19329
0.196504
0.200165
0.204275
0.208952
0.214392
0.221
0.229724
0.243876
0.25984
0.271372
0.321838
0.374049
0.28747
0.285127
0.283851
0.28565
0.293166
0.31877
0.328725
0.334929
0.341169
0.347661
0.353121
0.356972
0.3569
0.350012
0.343549
0.337892
0.334163
0.332638
0.332862
0.334325
0.336687
0.339796
0.34369
0.348641
0.355305
0.364945
0.37935
0.400844
0.431634
0.470915
0.510694
0.539536
0.554239
0.559813
0.561667
0.56225
0.562427
0.562479
0.562494
0.562498
0.5625
0.5625
0.5625
0.5625
0.5625
0.5625
0.5625
0.5625
0.5625
0.5625
0.5625
0.5625
0.5625
0.5625
0.5625
0.5625
0.5625
0.5625
0.5625
0.5625
0.5625
0.5625
0.5625
0.5625
0.5625
0.5625
0.5625
0.5625
0.5625
0.5625
0.5625
0.5625
0.5625
0.5625
0.5625
0.5625
0.5625
0.5625
0.5625
0.5625
0.5625
0.0397497
0.0414139
0.0438993
0.0472311
0.0513686
0.0561767
0.0614633
0.0670813
0.0729326
0.0789889
0.085325
0.0918543
0.0988368
0.106586
0.115525
0.123997
0.133608
0.145017
0.161096
0.192171
0.223817
0.267382
0.281497
0.442505
0.557218
0.561737
0.562466
0.562482
0.56245
0.562302
0.558102
0.365523
0.266306
0.273213
0.297418
0.519361
0.562088
0.562417
0.562125
0.557247
0.339258
0.266716
0.264031
0.263092
0.261709
0.258422
0.251609
0.23971
0.224529
0.211909
0.203117
0.197722
0.19502
0.194371
0.195265
0.197309
0.200201
0.203728
0.207759
0.212302
0.217396
0.223273
0.230442
0.240449
0.259546
0.274169
0.455034
0.56106
0.561273
0.55256
0.430091
0.30363
0.304394
0.318223
0.355351
0.512849
0.561824
0.553048
0.56229
0.562088
0.559292
0.504185
0.371754
0.370388
0.366543
0.364391
0.365092
0.36788
0.372109
0.377488
0.384007
0.391825
0.40129
0.413364
0.430666
0.454898
0.484937
0.515327
0.538885
0.552637
0.558925
0.561322
0.562127
0.562385
0.562466
0.56249
0.562497
0.562499
0.5625
0.5625
0.5625
0.5625
0.5625
0.5625
0.5625
0.5625
0.5625
0.5625
0.5625
0.5625
0.5625
0.5625
0.5625
0.5625
0.5625
0.5625
0.5625
0.5625
0.5625
0.5625
0.5625
0.5625
0.5625
0.5625
0.5625
0.5625
0.5625
0.5625
0.5625
0.5625
0.5625
0.5625
0.5625
0.5625
0.5625
0.5625
0.5625
0.5625
0.5625
0.5625
0.0418621
0.0438083
0.046802
0.0509399
0.0561851
0.0622781
0.0688213
0.0755808
0.0824596
0.0894593
0.0966518
0.104086
0.112028
0.120807
0.131119
0.143881
0.157252
0.174995
0.214432
0.275255
0.299385
0.325727
0.54588
0.561358
0.562451
0.562495
0.5625
0.5625
0.5625
0.562499
0.56247
0.54856
0.437096
0.3063
0.436709
0.557163
0.562466
0.5625
0.562499
0.562473
0.555034
0.308541
0.405705
0.46557
0.446799
0.349025
0.292725
0.244931
0.231441
0.21982
0.210839
0.204911
0.201797
0.201015
0.202065
0.204505
0.207953
0.21209
0.216657
0.221685
0.227096
0.233085
0.240148
0.250696
0.273766
0.505456
0.561826
0.562494
0.562497
0.562435
0.560828
0.397461
0.321322
0.361513
0.432888
0.544896
0.562437
0.562468
0.562499
0.562499
0.562494
0.562389
0.561578
0.519372
0.384709
0.388337
0.395633
0.405341
0.417245
0.431297
0.447129
0.463548
0.478715
0.492127
0.509114
0.527688
0.54329
0.553422
0.558723
0.561079
0.562008
0.562339
0.562449
0.562485
0.562495
0.562499
0.5625
0.5625
0.5625
0.5625
0.5625
0.5625
0.5625
0.5625
0.5625
0.5625
0.5625
0.5625
0.5625
0.5625
0.5625
0.5625
0.5625
0.5625
0.5625
0.5625
0.5625
0.5625
0.5625
0.5625
0.5625
0.5625
0.5625
0.5625
0.5625
0.5625
0.5625
0.5625
0.5625
0.5625
0.5625
0.5625
0.5625
0.5625
0.5625
0.5625
0.5625
0.5625
0.5625
0.5625
0.0438437
0.0461317
0.0498188
0.0551948
0.0622888
0.0705638
0.0790572
0.0874603
0.0957194
0.103925
0.11225
0.120909
0.130266
0.140808
0.15339
0.170257
0.19607
0.233983
0.319249
0.379867
0.536892
0.556874
0.562312
0.562491
0.5625
0.5625
0.5625
0.5625
0.5625
0.5625