/*--------------------------------*- C++ -*----------------------------------*\
| =========                 |                                                 |
| \\      /  F ield         | OpenFOAM: The Open Source CFD Toolbox           |
|  \\    /   O peration     | Version:  2.1.0                                 |
|   \\  /    A nd           | Web:      www.OpenFOAM.org                      |
|    \\/     M anipulation  |                                                 |
\*---------------------------------------------------------------------------*/
FoamFile
{
    version     2.0;
    format      ascii;
    class       volScalarField;
    location    "28105";
    object      kr_w;
}
// * * * * * * * * * * * * * * * * * * * * * * * * * * * * * * * * * * * * * //

dimensions      [0 0 0 0 0 0 0];

internalField   nonuniform List<scalar> 
15000
(
0.5625
0.562497
0.562362
0.560275
0.551476
0.534061
0.511244
0.486816
0.462914
0.440407
0.419546
0.40033
0.382665
0.366429
0.351494
0.337743
0.325066
0.313361
0.302536
0.292508
0.283201
0.274545
0.266478
0.258941
0.251881
0.245249
0.239
0.233094
0.2275
0.222187
0.21713
0.212307
0.207697
0.203282
0.199045
0.194971
0.191046
0.187258
0.183595
0.180048
0.176606
0.173262
0.170007
0.166837
0.163744
0.160723
0.15777
0.154881
0.152054
0.149286
0.146574
0.143918
0.141317
0.138769
0.136276
0.133836
0.13145
0.129117
0.126839
0.124613
0.12244
0.12032
0.118252
0.116233
0.114264
0.112343
0.110467
0.108634
0.106843
0.105092
0.103379
0.101701
0.100057
0.0984444
0.0968614
0.095306
0.0937762
0.0922705
0.0907874
0.0893253
0.0878827
0.086458
0.0850497
0.0836564
0.0822771
0.0809111
0.0795574
0.0782152
0.0768835
0.0755617
0.0742491
0.0729445
0.0716474
0.0703573
0.0690736
0.0677955
0.0665226
0.0652541
0.063989
0.0627269
0.0614671
0.0602086
0.0589497
0.0576887
0.0564234
0.0551514
0.0538698
0.0525754
0.0512636
0.0499298
0.0485679
0.0471708
0.0457305
0.044238
0.042684
0.0410596
0.0393566
0.0375663
0.0356756
0.0336596
0.0314741
0.0290468
0.0262745
0.0230318
0.0192101
0.0148275
0.0102431
0.00620471
0.00334735
0.00168561
0.000829402
0.000410293
0.0002065
0.000105549
5.46603e-05
2.85349e-05
1.49291e-05
7.79193e-06
4.0394e-06
2.068e-06
1.03685e-06
5.0333e-07
2.33204e-07
1.01322e-07
4.0392e-08
1.43657e-08
4.38364e-09
1.07983e-09
1.91933e-10
1.86046e-11
0.562497
0.562484
0.561855
0.557586
0.54564
0.526342
0.503251
0.479372
0.456262
0.434535
0.414364
0.395734
0.378557
0.362726
0.348131
0.334664
0.322225
0.310722
0.300069
0.290189
0.281008
0.272464
0.264494
0.257044
0.250062
0.243499
0.237311
0.231462
0.225919
0.220654
0.215644
0.210864
0.206297
0.201922
0.197724
0.193688
0.1898
0.186048
0.182421
0.178907
0.175499
0.172187
0.168966
0.165826
0.162763
0.15977
0.156844
0.153981
0.151178
0.148432
0.145742
0.143106
0.140522
0.137991
0.135512
0.133086
0.130712
0.12839
0.126121
0.123904
0.121739
0.119626
0.117563
0.115551
0.113587
0.11167
0.109798
0.10797
0.106183
0.104435
0.102725
0.101051
0.0994098
0.0978003
0.09622
0.0946668
0.0931394
0.0916359
0.0901547
0.0886942
0.0872525
0.0858279
0.0844188
0.0830241
0.0816426
0.0802737
0.078916
0.0775685
0.07623
0.0748997
0.073577
0.0722606
0.0709495
0.0696427
0.0683397
0.0670394
0.0657407
0.0644422
0.0631432
0.0618425
0.0605381
0.0592276
0.0579084
0.056577
0.0552295
0.0538608
0.0524644
0.051033
0.0495566
0.048023
0.0464171
0.0447209
0.0429136
0.0409742
0.0388847
0.0366347
0.0342238
0.0316584
0.0289386
0.026039
0.0228921
0.0193931
0.0154593
0.0112081
0.00716294
0.00402683
0.00206816
0.00102495
0.000512657
0.000265304
0.000141799
7.78102e-05
4.35985e-05
2.50874e-05
1.46544e-05
8.58489e-06
4.97828e-06
2.84631e-06
1.60481e-06
8.90897e-07
4.83677e-07
2.53556e-07
1.26283e-07
5.85914e-08
2.47482e-08
9.2514e-09
2.94529e-09
7.52149e-10
1.37891e-10
1.37336e-11
0.562367
0.561868
0.559199
0.550898
0.535425
0.514859
0.492174
0.469373
0.44745
0.426808
0.407564
0.389708
0.373172
0.357873
0.343719
0.330622
0.318496
0.307257
0.296831
0.287146
0.278137
0.269743
0.261907
0.254576
0.2477
0.241231
0.23513
0.22936
0.223892
0.218698
0.213755
0.209041
0.204535
0.20022
0.19608
0.1921
0.188267
0.184568
0.180992
0.177529
0.174171
0.170907
0.167731
0.164635
0.161613
0.158659
0.155771
0.152943
0.150172
0.147456
0.144793
0.142181
0.139619
0.137108
0.134647
0.132236
0.129876
0.127566
0.125308
0.123101
0.120945
0.118839
0.116784
0.114779
0.112822
0.110911
0.109046
0.107224
0.105443
0.103702
0.101998
0.10033
0.0986948
0.0970908
0.0955157
0.0939677
0.0924451
0.0909461
0.0894689
0.0880118
0.086573
0.0851507
0.0837433
0.0823495
0.0809682
0.0795984
0.0782383
0.0768869
0.0755431
0.0742059
0.0728744
0.071547
0.0702225
0.0688999
0.0675781
0.0662557
0.0649311
0.0636029
0.0622693
0.0609281
0.0595762
0.0582102
0.056826
0.0554175
0.0539778
0.0524982
0.0509672
0.0493699
0.047687
0.0458932
0.0439572
0.0418418
0.039507
0.0369181
0.034057
0.0309334
0.0275883
0.0240805
0.0204562
0.0167209
0.0128631
0.0090122
0.00559136
0.00307553
0.00155094
0.000748554
0.000358294
0.000175035
8.98032e-05
4.96666e-05
2.86317e-05
1.69136e-05
1.01889e-05
6.36746e-06
4.08562e-06
2.64562e-06
1.6747e-06
1.03438e-06
6.28699e-07
3.77769e-07
2.23037e-07
1.27051e-07
6.84325e-08
3.40323e-08
1.52386e-08
5.97265e-09
1.97444e-09
5.1951e-10
9.7563e-11
9.91548e-12
0.560376
0.557741
0.551062
0.538565
0.52094
0.500374
0.478826
0.4575
0.437013
0.417636
0.399464
0.382501
0.366708
0.352026
0.33839
0.325727
0.313968
0.303043
0.292888
0.283438
0.274636
0.266425
0.258751
0.251565
0.244819
0.238468
0.232475
0.226807
0.221435
0.216333
0.211478
0.206848
0.202423
0.198186
0.194122
0.190215
0.186453
0.182824
0.179316
0.175919
0.172624
0.169422
0.166304
0.163264
0.160295
0.157392
0.15455
0.151766
0.149036
0.146356
0.143726
0.141143
0.138608
0.13612
0.13368
0.131287
0.128942
0.126646
0.1244
0.122204
0.120057
0.117961
0.115915
0.113918
0.111969
0.110066
0.108209
0.106396
0.104623
0.10289
0.101195
0.0995349
0.0979079
0.0963118
0.0947445
0.0932041
0.0916887
0.0901966
0.0887258
0.0872746
0.0858412
0.0844233
0.0830197
0.081629
0.0802496
0.0788802
0.0775192
0.0761654
0.0748174
0.0734742
0.0721345
0.0707969
0.0694596
0.0681215
0.0667809
0.0654361
0.0640852
0.062726
0.0613559
0.0599713
0.0585684
0.0571419
0.055685
0.0541889
0.0526422
0.0510304
0.0493338
0.0475259
0.0455716
0.0434255
0.0410312
0.0383264
0.0352542
0.031784
0.0279374
0.0238059
0.019544
0.0153327
0.0113388
0.00773781
0.00477576
0.00266547
0.00137531
0.000674504
0.000321033
0.000150272
7.00061e-05
3.31102e-05
1.66181e-05
9.82377e-06
6.02056e-06
3.74754e-06
2.37487e-06
1.5837e-06
1.11264e-06
8.11602e-07
5.58828e-07
3.68286e-07
2.39204e-07
1.55712e-07
1.01056e-07
6.32014e-08
3.71628e-08
1.99048e-08
9.44344e-09
3.86297e-09
1.31674e-09
3.54066e-10
6.75486e-11
6.95054e-12
0.552003
0.546246
0.536019
0.521337
0.503476
0.483982
0.464042
0.444391
0.425443
0.407403
0.390365
0.374352
0.359355
0.345342
0.332268
0.320082
0.308729
0.298154
0.288301
0.279116
0.270548
0.262544
0.255055
0.248035
0.241438
0.235225
0.229362
0.223815
0.21856
0.213569
0.20882
0.204291
0.199965
0.195824
0.191852
0.188035
0.184361
0.180817
0.177392
0.174076
0.170858
0.167731
0.164685
0.161714
0.15881
0.155969
0.153184
0.150453
0.14777
0.145134
0.142543
0.139995
0.13749
0.135029
0.132611
0.130238
0.127911
0.125631
0.123398
0.121213
0.119077
0.11699
0.114954
0.112966
0.111026
0.109133
0.107285
0.105481
0.103719
0.101997
0.100312
0.0986629
0.0970463
0.0954605
0.0939034
0.092373
0.0908671
0.0893841
0.0879222
0.0864793
0.0850535
0.0836424
0.0822448
0.080859
0.0794834
0.0781164
0.0767562
0.0754012
0.0740503
0.0727017
0.0713542
0.0700071
0.0686575
0.0673039
0.0659441
0.0645761
0.0631975
0.0618052
0.0603956
0.0589642
0.057505
0.0560106
0.0544705
0.0528718
0.0511973
0.0494229
0.0475164
0.0454341
0.0431176
0.040492
0.0374714
0.0339743
0.0299557
0.0254521
0.0206213
0.0157488
0.0111996
0.00733441
0.00441172
0.00246624
0.00130387
0.000662756
0.000327144
0.000157301
7.35457e-05
3.32959e-05
1.45491e-05
6.17109e-06
2.7214e-06
1.85803e-06
1.20894e-06
7.84745e-07
5.15133e-07
3.59667e-07
2.76907e-07
2.47709e-07
1.84406e-07
1.26387e-07
8.62016e-08
6.08383e-08
4.44823e-08
3.10102e-08
2.02253e-08
1.1741e-08
5.88593e-09
2.49286e-09
8.6737e-10
2.35931e-10
4.52973e-11
4.68055e-12
0.535411
0.527708
0.516122
0.50137
0.484546
0.466676
0.448516
0.43057
0.41315
0.396436
0.380529
0.365475
0.35129
0.337964
0.325473
0.313786
0.302861
0.292656
0.283127
0.274226
0.265909
0.258129
0.250841
0.244003
0.237573
0.231515
0.225798
0.220391
0.215269
0.210407
0.205781
0.201372
0.197161
0.193131
0.189268
0.185557
0.181985
0.178542
0.175216
0.171995
0.16887
0.165832
0.162872
0.159983
0.157156
0.154387
0.151671
0.149001
0.146375
0.14379
0.141243
0.138735
0.136265
0.133834
0.131442
0.129092
0.126784
0.124519
0.122299
0.120126
0.118001
0.115925
0.113897
0.111919
0.109989
0.108106
0.10627
0.104478
0.102728
0.101018
0.0993461
0.0977093
0.0961055
0.0945324
0.0929878
0.0914695
0.0899756
0.0885043
0.0870536
0.0856215
0.0842056
0.0828037
0.0814145
0.0800359
0.0786661
0.077303
0.0759451
0.0745903
0.0732371
0.071884
0.0705297
0.0691738
0.067812
0.0664424
0.0650628
0.0636705
0.0622624
0.0608346
0.0593821
0.0578987
0.0563761
0.0548035
0.0531664
0.0514452
0.0496139
0.0476354
0.045459
0.0430157
0.0402151
0.0369492
0.0331122
0.0286422
0.0235903
0.0181913
0.0128875
0.00824549
0.004746
0.0025136
0.00127827
0.000648111
0.000328409
0.000165016
8.1417e-05
3.90192e-05
1.79268e-05
7.75418e-06
3.07236e-06
1.06575e-06
5.54717e-07
5.94009e-08
6.28452e-09
1.63635e-09
5.2189e-09
1.12964e-08
1.87962e-08
1.00379e-07
6.69502e-08
4.33317e-08
2.92369e-08
2.17726e-08
1.88992e-08
1.48559e-08
1.10554e-08
6.99955e-09
3.67592e-09
1.59003e-09
5.57207e-10
1.5159e-10
2.90255e-11
2.99056e-12
0.513644
0.50556
0.494268
0.480564
0.465294
0.449178
0.432763
0.416435
0.400457
0.385002
0.370179
0.356055
0.342664
0.330018
0.318112
0.306927
0.296437
0.286611
0.277413
0.268806
0.260749
0.253202
0.246126
0.239479
0.233228
0.22734
0.221785
0.216535
0.211563
0.206846
0.20236
0.198086
0.194006
0.190103
0.186363
0.182773
0.17932
0.175993
0.172779
0.169669
0.166652
0.163718
0.160858
0.158064
0.155328
0.152644
0.150006
0.147408
0.144847
0.142321
0.139827
0.137364
0.134934
0.132536
0.130173
0.127846
0.125558
0.123309
0.121103
0.118942
0.116827
0.11476
0.112742
0.110773
0.108853
0.106982
0.105158
0.103379
0.101643
0.0999478
0.0982906
0.0966688
0.09508
0.0935217
0.0919917
0.0904878
0.0890083
0.0875513
0.0861145
0.0846956
0.0832922
0.0819022
0.0805236
0.0791544
0.0777925
0.0764355
0.0750811
0.0737278
0.0723737
0.0710175
0.0696574
0.0682913
0.0669174
0.0655319
0.0641318
0.0627138
0.0612739
0.0598072
0.0583071
0.0567653
0.0551701
0.0535065
0.0517541
0.0498842
0.0478574
0.0456188
0.0430918
0.0401733
0.0367373
0.0326534
0.0278402
0.0223565
0.0165124
0.0109147
0.00631967
0.00322098
0.00150362
0.000679289
0.000313523
0.000155537
7.94978e-05
4.06115e-05
2.03235e-05
9.79888e-06
4.46423e-06
1.8653e-06
6.75505e-07
1.82148e-07
1.32882e-08
1.98222e-13
6.8901e-16
0
4.71788e-12
2.12267e-10
2.38491e-10
1.03007e-09
1.0148e-09
8.29996e-10
1.10951e-09
1.60086e-09
8.57556e-09
6.97941e-09
6.17902e-09
4.23616e-09
2.27377e-09
9.8349e-10
3.42229e-10
9.22845e-11
1.75201e-11
1.79281e-12
0.490361
0.482723
0.472403
0.460082
0.446417
0.431958
0.417135
0.402273
0.387608
0.373308
0.359493
0.346242
0.333607
0.321615
0.310274
0.29958
0.289518
0.280067
0.271199
0.262885
0.255089
0.247778
0.240914
0.234467
0.228403
0.222696
0.217316
0.212236
0.207431
0.202875
0.198545
0.194422
0.190488
0.186727
0.183125
0.179669
0.176349
0.173152
0.170068
0.167084
0.164191
0.161377
0.158632
0.155948
0.153317
0.150731
0.148183
0.145669
0.143184
0.140725
0.138291
0.13588
0.133494
0.131133
0.128801
0.1265
0.124231
0.121999
0.119806
0.117656
0.11555
0.113492
0.111482
0.109522
0.107612
0.105753
0.103942
0.102177
0.100457
0.0987784
0.0971381
0.0955334
0.0939616
0.0924204
0.0909073
0.0894206
0.087958
0.0865176
0.085097
0.0836939
0.0823058
0.0809305
0.0795656
0.0782085
0.0768566
0.0755076
0.0741591
0.0728091
0.0714558
0.0700973
0.0687314
0.0673556
0.0659695
0.064567
0.0631446
0.0616985
0.0602239
0.0587143
0.0571609
0.0555522
0.0538729
0.0521017
0.0502096
0.0481559
0.0458831
0.0433098
0.0403254
0.0367888
0.0325482
0.0274969
0.0216879
0.0154894
0.00966502
0.00514094
0.00236264
0.00098432
0.000391174
0.000154712
6.42563e-05
3.29361e-05
1.75833e-05
9.31972e-06
4.79885e-06
2.36272e-06
1.09015e-06
4.54816e-07
1.59023e-07
3.6283e-08
1.38878e-09
1.68524e-11
5.79023e-14
3.17516e-18
1.63203e-15
2.20175e-13
3.32478e-13
1.60815e-12
1.81485e-12
1.50868e-12
2.05124e-11
2.678e-11
4.69484e-10
9.22799e-10
3.77216e-09
2.52203e-09
1.33033e-09
5.69124e-10
1.9616e-10
5.24177e-11
9.86893e-12
1.00309e-12
0.467657
0.460723
0.45149
0.440508
0.428295
0.415294
0.401863
0.388285
0.37478
0.361513
0.34861
0.336159
0.324224
0.312843
0.302035
0.291807
0.282154
0.273063
0.264514
0.256482
0.248939
0.241855
0.235203
0.228954
0.223084
0.217565
0.212372
0.207477
0.202852
0.198473
0.194316
0.190359
0.186585
0.182979
0.179529
0.176222
0.173049
0.169998
0.167059
0.164218
0.161466
0.158788
0.156176
0.15362
0.151109
0.148636
0.146193
0.143776
0.141379
0.138998
0.136632
0.13428
0.131943
0.129624
0.127325
0.12505
0.122802
0.120585
0.118404
0.116263
0.114165
0.112112
0.110109
0.108157
0.106256
0.104408
0.102611
0.100862
0.0991595
0.0974991
0.095878
0.0942928
0.0927404
0.0912185
0.0897248
0.0882572
0.0868137
0.0853922
0.0839906
0.0826063
0.081237
0.0798795
0.0785313
0.0771892
0.0758503
0.0745118
0.0731714
0.0718266
0.0704754
0.0691155
0.0677442
0.066359
0.0649589
0.0635382
0.0620925
0.0606167
0.0591044
0.0575469
0.0559326
0.0542462
0.052467
0.0505662
0.0485023
0.0462173
0.0436287
0.0406213
0.0370445
0.0327268
0.027532
0.0214906
0.0150005
0.00896119
0.00445967
0.00188889
0.000718222
0.000256306
8.78793e-05
2.92123e-05
9.41215e-06
5.61946e-06
3.26069e-06
1.8272e-06
9.81338e-07
5.01632e-07
2.40505e-07
1.04585e-07
3.80592e-08
7.49413e-09
1.71178e-10
1.58523e-12
6.68372e-15
0
0
1.71459e-16
4.06421e-16
2.69254e-15
3.08626e-15
2.27659e-15
5.0936e-14
6.5475e-14
1.54211e-12
1.10522e-10
2.2575e-09
1.42373e-09
7.28681e-10
3.06876e-10
1.04762e-10
2.77887e-11
5.19852e-12
5.25655e-13
0.446398
0.440165
0.431916
0.422092
0.411111
0.399339
0.387085
0.374603
0.362098
0.349732
0.337633
0.325897
0.314593
0.303767
0.293449
0.283653
0.27438
0.265624
0.257371
0.249601
0.242292
0.235422
0.22897
0.222915
0.217238
0.211913
0.206917
0.202219
0.197792
0.193608
0.189639
0.185863
0.182264
0.178826
0.17554
0.172396
0.169385
0.166496
0.163719
0.16104
0.158447
0.155926
0.153466
0.151055
0.148684
0.146342
0.144022
0.141718
0.139423
0.137132
0.134845
0.13256
0.130279
0.128006
0.125742
0.123494
0.121266
0.119063
0.116892
0.114757
0.112662
0.110613
0.108613
0.106666
0.104773
0.102936
0.101152
0.0994196
0.0977357
0.0960961
0.0944966
0.0929332
0.0914025
0.0899019
0.0884295
0.0869832
0.085561
0.0841611
0.0827814
0.0814194
0.0800722
0.0787363
0.0774082
0.0760843
0.0747616
0.0734369
0.0721073
0.0707701
0.0694225
0.0680621
0.0666859
0.0652912
0.0638748
0.0624368
0.0609668
0.0594584
0.0579035
0.0562909
0.054606
0.0528284
0.0509293
0.0488686
0.0465891
0.0440083
0.0410103
0.0374394
0.0331089
0.0278524
0.0216606
0.0149273
0.00865772
0.00410251
0.0016337
0.000579794
0.000191321
5.96747e-05
1.75281e-05
4.70714e-06
1.03522e-06
1.15996e-07
8.97882e-09
4.17872e-10
1.50367e-11
3.59551e-10
1.15557e-09
1.17078e-09
2.32712e-09
2.23969e-10
3.29218e-12
1.0821e-14
0
0
0
0
0
0
0
0
3.17516e-18
3.17516e-18
4.26742e-15
4.15161e-10
1.2854e-09
7.66103e-10
3.71572e-10
1.55043e-10
5.26082e-11
1.38838e-11
2.58525e-12
2.60462e-13
0.426841
0.421219
0.41379
0.404914
0.394936
0.384167
0.372881
0.361308
0.349642
0.338041
0.326633
0.315518
0.304768
0.294435
0.284555
0.275146
0.266215
0.257759
0.249769
0.242229
0.235125
0.228445
0.222176
0.216303
0.210812
0.205682
0.200889
0.196404
0.192192
0.188221
0.184459
0.180883
0.177473
0.174217
0.171107
0.168138
0.165303
0.162593
0.159997
0.1575
0.155089
0.152748
0.150464
0.148223
0.146013
0.143825
0.14165
0.139478
0.137302
0.135117
0.132921
0.130714
0.128496
0.126272
0.124047
0.121826
0.119617
0.117427
0.115262
0.113129
0.111034
0.108983
0.106981
0.105034
0.103137
0.101295
0.0995138
0.0977962
0.0961315
0.0945142
0.0929383
0.0913992
0.0898929
0.0884167
0.0869686
0.0855465
0.0841493
0.0827758
0.0814237
0.08009
0.0787713
0.0774635
0.0761625
0.0748641
0.0735645
0.0722594
0.0709455
0.0696197
0.068279
0.0669205
0.0655413
0.0641384
0.062708
0.0612491
0.0597514
0.0582066
0.0566038
0.054928
0.0531597
0.0512717
0.0492244
0.0469622
0.0444051
0.0414391
0.0379072
0.033612
0.028358
0.022087
0.0151562
0.00863951
0.00395692
0.00150579
0.0005077
0.000158337
4.63792e-05
1.27244e-05
3.21129e-06
7.10743e-07
1.17787e-07
5.20531e-09
6.00764e-11
1.18059e-13
3.17516e-18
1.09867e-13
5.08334e-12
3.23218e-12
6.10578e-13
8.75183e-13
1.66156e-14
3.17516e-18
0
0
0
0
0
0
0
0
0
0
5.46846e-13
2.08627e-10
6.28785e-10
3.8359e-10
1.82775e-10
7.47383e-11
2.52178e-11
6.6244e-12
1.2285e-12
1.23428e-13
0.408995
0.403873
0.397097
0.388966
0.379776
0.369799
0.359282
0.348438
0.337453
0.32648
0.315648
0.305056
0.294778
0.28487
0.275369
0.266295
0.257657
0.249455
0.241681
0.234329
0.227392
0.220868
0.214751
0.209037
0.203715
0.198773
0.194188
0.189929
0.185955
0.182224
0.178695
0.175338
0.172134
0.169072
0.16615
0.163368
0.160723
0.15821
0.155817
0.153529
0.151328
0.149196
0.147116
0.145073
0.143055
0.141048
0.139043
0.137029
0.134995
0.132937
0.130848
0.128731
0.126585
0.124417
0.122233
0.120041
0.11785
0.115669
0.113505
0.111368
0.109265
0.107204
0.105193
0.103219
0.1013
0.0994479
0.097666
0.0959557
0.0943159
0.0927268
0.0911804
0.08967
0.0881911
0.0867408
0.0853176
0.0839208
0.08255
0.0812043
0.0798822
0.0785806
0.0772953
0.0760219
0.074755
0.0734893
0.0722195
0.0709408
0.069649
0.06834
0.0670108
0.0656584
0.0642797
0.0628709
0.0614275
0.0599439
0.0584204
0.0568364
0.0551782
0.0534276
0.0515583
0.0495328
0.0472974
0.0447753
0.0418553
0.0383817
0.0341511
0.0289448
0.0226522
0.01557
0.00880298
0.00394191
0.00145167
0.000471444
0.000141205
3.95986e-05
1.03758e-05
2.50943e-06
5.48587e-07
1.0515e-07
1.70667e-08
3.05647e-10
2.63983e-13
2.22261e-17
0
0
3.10849e-15
3.64826e-15
9.14447e-16
2.25754e-15
3.17516e-18
0
0
0
0
0
0
0
0
0
0
2.47663e-16
1.46603e-12
1.02957e-10
2.96591e-10
1.83893e-10
8.73278e-11
3.51509e-11
1.16808e-11
3.05279e-12
5.63846e-13
5.65719e-14
0.392774
0.388046
0.381768
0.374199
0.365602
0.356222
0.346286
0.335999
0.32554
0.315061
0.304688
0.294518
0.284628
0.275071
0.265883
0.257084
0.248681
0.240673
0.233059
0.22584
0.219019
0.2126
0.206588
0.200987
0.1958
0.191025
0.186645
0.182629
0.178924
0.17547
0.172211
0.169104
0.166127
0.163273
0.160548
0.157962
0.155522
0.153226
0.151063
0.149016
0.147062
0.145177
0.14334
0.141533
0.139742
0.137954
0.136155
0.134332
0.132472
0.130566
0.128608
0.126596
0.124535
0.12243
0.120291
0.118129
0.115954
0.113777
0.111609
0.109459
0.107338
0.105256
0.103197
0.101182
0.0992284
0.0973495
0.0955565
0.0938539
0.0922413
0.0906847
0.0891723
0.0876947
0.0862459
0.0848228
0.0834252
0.082054
0.0807107
0.0793952
0.0781062
0.076841
0.0755954
0.0743638
0.0731394
0.0719151
0.0706837
0.069439
0.0681758
0.0668898
0.0655774
0.0642356
0.0628609
0.0614488
0.0599943
0.0584899
0.0569308
0.0553017
0.0535801
0.0517403
0.0497463
0.0475463
0.0450658
0.042198
0.0387907
0.0346387
0.0295041
0.0232274
0.0160345
0.009035
0.00398349
0.0014323
0.000452862
0.000131963
3.59823e-05
9.15986e-06
2.15102e-06
4.5678e-07
8.54877e-08
1.39764e-08
3.555e-09
2.50309e-11
4.5154e-14
3.17516e-18
0
0
0
0
0
0
0
0
0
0
0
0
0
0
0
0
0
1.47963e-15
1.13594e-12
5.15527e-11
1.39034e-10
8.61606e-11
4.07388e-11
1.62482e-11
5.33514e-12
1.37591e-12
2.52111e-13
2.53156e-14
0.378068
0.373636
0.367717
0.360546
0.352361
0.343394
0.333861
0.323964
0.31388
0.30376
0.293729
0.283883
0.274294
0.265011
0.256065
0.24747
0.23923
0.231347
0.223825
0.21667
0.209892
0.203501
0.197513
0.191939
0.186631
0.181778
0.177576
0.173821
0.170441
0.167342
0.164431
0.161641
0.15894
0.156327
0.153823
0.151458
0.149255
0.147222
0.145349
0.143614
0.141984
0.140424
0.138905
0.137405
0.135908
0.134402
0.132871
0.131296
0.129661
0.127951
0.126158
0.12428
0.122321
0.120293
0.118206
0.116075
0.113914
0.111736
0.109555
0.107382
0.105229
0.103095
0.100967
0.0988787
0.0968491
0.0949017
0.0930635
0.091353
0.0897649
0.0882484
0.0867789
0.085341
0.0839257
0.0825302
0.081157
0.0798107
0.078495
0.077212
0.0759617
0.0747417
0.0735478
0.0723725
0.0712066
0.07004
0.0688628
0.0676664
0.0664443
0.0651918
0.0639051
0.062581
0.0612162
0.0598057
0.0583429
0.0568183
0.0552189
0.0535412
0.0517423
0.0497892
0.0476327
0.0452008
0.0423888
0.039048
0.0349728
0.0299119
0.0236631
0.0163858
0.00919413
0.00399644
0.00140973
0.000437434
0.000125338
3.36703e-05
8.46114e-06
1.96612e-06
4.14141e-07
7.65496e-08
1.1702e-08
1.27357e-09
4.03e-11
3.24743e-13
4.82625e-16
0
0
0
0
0
0
0
0
0
0
0
0
0
0
0
0
0
0
1.06368e-15
1.06163e-12
2.67352e-11
6.48916e-11
3.97096e-11
1.86498e-11
7.38655e-12
2.40618e-12
6.15471e-13
1.12067e-13
1.12877e-14
0.364761
0.360538
0.354855
0.347929
0.339987
0.331254
0.321948
0.312274
0.302414
0.29252
0.282716
0.273094
0.263717
0.254627
0.245844
0.237373
0.229217
0.221381
0.213868
0.206685
0.199842
0.193358
0.186985
0.180529
0.174347
0.168638
0.163762
0.160424
0.157652
0.155265
0.153056
0.150892
0.148709
0.146512
0.144355
0.142321
0.140479
0.138859
0.137456
0.136238
0.13515
0.134128
0.133124
0.132109
0.131071
0.129997
0.128871
0.12767
0.126368
0.124945
0.123388
0.121697
0.119881
0.117953
0.115934
0.113841
0.111694
0.109511
0.107308
0.105098
0.102894
0.100659
0.098423
0.0962002
0.0940113
0.0918955
0.0899206
0.0881592
0.0866115
0.0851529
0.0837449
0.0823604
0.0809845
0.0796153
0.0782605
0.0769321
0.0756396
0.0743888
0.073182
0.0720186
0.0708944
0.0698002
0.0687226
0.0676453
0.066553
0.0654331
0.0642772
0.0630795
0.0618369
0.0605466
0.0592053
0.0578073
0.0563441
0.0548035
0.0531679
0.0514136
0.0495262
0.0474303
0.0450565
0.0423032
0.0390229
0.0350107
0.0300047
0.0237664
0.0164072
0.00909085
0.00387321
0.00134116
0.000410788
0.000116774
3.12478e-05
7.85238e-06
1.83383e-06
3.91327e-07
7.43459e-08
1.20454e-08
1.53167e-09
1.23623e-10
2.25242e-12
2.28707e-14
0
0
0
0
0
0
0
0
0
0
0
0
0
0
0
0
0
0
0
1.82254e-15
4.11974e-12
1.46884e-11
2.98472e-11
1.79549e-11
8.38469e-12
3.30662e-12
1.07218e-12
2.73013e-13
4.96437e-14
5.09296e-15
0.352748
0.348655
0.343091
0.336264
0.328396
0.319717
0.310457
0.300835
0.291044
0.281243
0.271551
0.262053
0.252799
0.243815
0.235107
0.226677
0.218522
0.210639
0.203026
0.195682
0.188613
0.181387
0.173682
0.165755
0.15759
0.149755
0.142803
0.139311
0.137487
0.136398
0.135493
0.134474
0.133184
0.131616
0.129899
0.128251
0.126881
0.12587
0.125225
0.124898
0.124786
0.124741
0.124661
0.124502
0.124256
0.123924
0.123491
0.122926
0.122187
0.12124
0.120069
0.118677
0.117081
0.115307
0.113388
0.111352
0.109227
0.107039
0.104805
0.102543
0.100262
0.0978914
0.0954673
0.0929884
0.0904595
0.0879267
0.0855602
0.0836405
0.0821466
0.0807882
0.0794887
0.0781935
0.0768725
0.0755235
0.0741674
0.0728349
0.0715478
0.0703197
0.0691589
0.0680693
0.0670492
0.0660888
0.0651664
0.0642514
0.0633159
0.0623384
0.0613059
0.060212
0.0590548
0.0578336
0.0565456
0.0551852
0.0537419
0.0521988
0.050531
0.0487032
0.0466709
0.044383
0.0417012
0.0384786
0.034506
0.0295134
0.0232366
0.0157803
0.00847844
0.00349543
0.00118558
0.000360241
0.000102421
2.7558e-05
6.99606e-06
1.66e-06
3.63014e-07
7.17202e-08
1.24262e-08
1.79795e-09
1.97764e-10
1.30316e-11
1.35224e-13
5.8423e-16
0
0
0
0
0
0
0
0
0
0
0
0
0
0
0
0
0
0
0
2.3655e-15
1.87484e-12
6.78411e-12
1.30599e-11
7.90485e-12
3.6996e-12
1.45882e-12
4.72433e-13
1.20161e-13
2.19436e-14
2.31152e-15
0.341894
0.337835
0.332267
0.325398
0.317464
0.308716
0.299406
0.289603
0.279619
0.269772
0.26008
0.250607
0.241384
0.232418
0.223703
0.215228
0.206977
0.198931
0.191068
0.183367
0.175501
0.166383
0.156246
0.145246
0.13331
0.12248
0.111752
0.108105
0.107617
0.10883
0.11018
0.111082
0.111163
0.11034
0.108797
0.106279
0.105307
0.105036
0.105486
0.10661
0.108229
0.109943
0.111493
0.112804
0.113905
0.114838
0.115608
0.116166
0.116428
0.116323
0.115823
0.11494
0.113712
0.112193
0.110436
0.108495
0.106412
0.104224
0.101954
0.0996208
0.0971793
0.0946174
0.0919087
0.0890056
0.085831
0.0823869
0.0790663
0.0768629
0.0754401
0.0743005
0.0732298
0.072114
0.0708834
0.0695297
0.0681076
0.0667032
0.0653658
0.0641213
0.0629881
0.0619824
0.0611148
0.0603795
0.0597408
0.0591298
0.0584901
0.0577795
0.0569758
0.0560728
0.0550732
0.0539815
0.0527989
0.0515209
0.0501336
0.0486123
0.0469194
0.0450007
0.0427774
0.0401424
0.0369645
0.0329967
0.0279354
0.0215352
0.0140426
0.00712269
0.00280064
0.000929491
0.000281552
8.05985e-05
2.19744e-05
5.68497e-06
1.38353e-06
3.12975e-07
6.47796e-08
1.20045e-08
1.92981e-09
2.56125e-10
2.56522e-11
1.54434e-12
9.13812e-15
0
0
0
0
0
0
0
0
0
0
0
0
0
0
0
0
0
0
0
0
6.22332e-15
8.39402e-13
2.99e-12
5.58257e-12
3.41334e-12
1.60695e-12
6.35607e-13
2.06201e-13
5.25902e-14
9.716e-15
1.07638e-15
0.332093
0.327957
0.322235
0.315141
0.306939
0.297916
0.288353
0.278396
0.26832
0.25844
0.248079
0.23853
0.229254
0.220229
0.211429
0.202817
0.194353
0.185985
0.177653
0.169284
0.158955
0.146516
0.131913
0.117518
0.102187
0.0918719
0.0803325
0.0780199
0.0782053
0.0816886
0.0850119
0.0875541
0.0886671
0.0879803
0.0841321
0.0787181
0.0765637
0.0765451
0.0778134
0.0804878
0.0844904
0.0887407
0.0925559
0.0958267
0.0987214
0.101419
0.103985
0.106335
0.108264
0.109585
0.110217
0.110178
0.10955
0.108435
0.106937
0.105146
0.103133
0.100954
0.0986439
0.0962198
0.0936144
0.0907965
0.0876921
0.0841666
0.0799218
0.0748887
0.06986
0.0675532
0.0663161
0.0656797
0.065056
0.0642743
0.0631798
0.0617364
0.0598146
0.058015
0.0565259
0.0551833
0.0540134
0.0530569
0.0523597
0.0519495
0.0517822
0.0516829
0.0515391
0.0512655
0.050823
0.0502099
0.0494427
0.0485395
0.0475108
0.0463543
0.0450513
0.0435628
0.041826
0.0397497
0.0372049
0.034009
0.0299142
0.0246506
0.0181186
0.010994
0.00514663
0.00191411
0.000621515
0.000188046
5.44068e-05
1.51268e-05
4.02481e-06
1.01605e-06
2.40584e-07
5.27049e-08
1.05008e-08
1.85916e-09
2.83105e-10
3.54073e-11
3.40965e-12
2.26049e-13
1.03193e-15
0
0
0
0
0
0
0
0
0
0
0
0
0
0
0
0
0
0
0
0
7.08379e-15
3.84154e-13
1.31043e-12
2.36553e-12
1.45554e-12
6.89731e-13
2.74223e-13
8.93967e-14
2.2966e-14
4.35315e-15
4.98501e-16
0.323259
0.318932
0.312888
0.30536
0.29665
0.287108
0.277071
0.266769
0.256468
0.246392
0.236059
0.226139
0.216147
0.206982
0.198016
0.189159
0.180324
0.171404
0.16226
0.151544
0.13758
0.119439
0.100164
0.0866923
0.0726063
0.0687292
0.0656003
0.046457
0.0404019
0.0705256
0.0726694
0.0744914
0.0751195
0.0735398
0.067601
0.060118
0.0574989
0.0564541
0.0567434
0.0587319
0.063454
0.0689528
0.0737379
0.0777431
0.0814295
0.0852241
0.0893356
0.0936614
0.0977246
0.101002
0.103223
0.104371
0.104573
0.104009
0.102853
0.101254
0.0993284
0.0971598
0.0947982
0.0922618
0.0894747
0.0863784
0.082841
0.0785991
0.0729134
0.0660872
0.0596404
0.057598
0.0566346
0.0568456
0.0567599
0.0563865
0.0553987
0.05365
0.0496809
0.0471951
0.0453285
0.0437914
0.0424487
0.0413786
0.0407083
0.0406014
0.04111
0.0417266
0.0422745
0.0425826
0.0425828
0.0422943
0.041768
0.0410504
0.0401694
0.0391276
0.0378966
0.0364072
0.0345408
0.0321351
0.0289792
0.0248253
0.0194975
0.0132482
0.0072608
0.00310281
0.00108851
0.000347044
0.000105284
3.09228e-05
8.8281e-06
2.4394e-06
6.46829e-07
1.62641e-07
3.82107e-08
8.26219e-09
1.61534e-09
2.78591e-10
4.08811e-11
4.86096e-12
4.50597e-13
4.5389e-14
6.35033e-17
0
0
0
0
0
0
0
0
0
0
0
0
0
0
0
0
0
0
0
3.17516e-18
7.20127e-15
1.83836e-13
5.75495e-13
9.95185e-13
6.14435e-13
2.93296e-13
1.17494e-13
3.86132e-14
1.00716e-14
1.99083e-15
2.22261e-16
0.315306
0.310661
0.304103
0.295877
0.286349
0.275977
0.265207
0.254359
0.243682
0.233284
0.222896
0.212916
0.202832
0.192332
0.183097
0.173846
0.164407
0.154568
0.144033
0.128557
0.109623
0.0861666
0.0676818
0.0615182
0.0571156
0.0094674
0.000298844
0.000220797
0.000652945
0.0021697
0.0384764
0.0657525
0.0663666
0.0637463
0.0549849
0.0510964
0.0224184
0.00234706
0.00476109
0.0322681
0.0572863
0.0606227
0.0633295
0.0655234
0.0678153
0.0707931
0.0749215
0.0803408
0.0863339
0.0916521
0.0956008
0.0980446
0.0991443
0.0991579
0.0983417
0.0969139
0.0950446
0.0928551
0.0904182
0.0877519
0.084804
0.0814881
0.0776173
0.0727587
0.0654528
0.0580038
0.0530994
0.03555
0.02258
0.0468543
0.0477224
0.0482008
0.0475275
0.0447996
0.0364588
0.0335758
0.0318719
0.0302261
0.0285838
0.0272554
0.0263463
0.0263632
0.028006
0.029616
0.031082
0.0320785
0.032493
0.0324318
0.0320345
0.0314014
0.0305826
0.0295802
0.0283417
0.0267371
0.0245356
0.0214937
0.0174546
0.0125738
0.00761997
0.00374998
0.00150983
0.000518077
0.000165544
5.10059e-05
1.52902e-05
4.48383e-06
1.29003e-06
3.61256e-07
9.7358e-08
2.48706e-08
5.89624e-09
1.27781e-09
2.49161e-10
4.26047e-11
6.10696e-12
6.77802e-13
4.83577e-14
3.8737e-16
0
0
0
0
0
0
0
0
0
0
0
0
0
0
0
0
0
0
0
0
6.35033e-17
2.34486e-14
9.45913e-14
2.5059e-13
4.1293e-13
2.56528e-13
1.238e-13
5.01803e-14
1.67458e-14
4.48651e-15
9.33498e-16
2.22261e-17
0.308148
0.303045
0.295731
0.286449
0.275664
0.264033
0.252211
0.240604
0.229403
0.218625
0.208115
0.197997
0.187879
0.177399
0.166168
0.156273
0.145828
0.134386
0.119794
0.0958174
0.0760178
0.0547535
0.0490942
0.0110726
0.000328128
4.67275e-05
2.05914e-06
1.09746e-06
3.03234e-06
1.21101e-05
0.000272459
0.0244081
0.0552075
0.052351
0.0433153
0.00303221
2.52368e-05
5.08115e-06
2.29381e-05
0.000326289
0.030723
0.055034
0.0561775
0.056582
0.0571829
0.0586334
0.0617441
0.0675325
0.0756179
0.0829869
0.0884959
0.0920377
0.0938606
0.0943031
0.0936935
0.0923147
0.0903944
0.0881026
0.0855474
0.0827478
0.0797076
0.0763243
0.0723714
0.0671593
0.0581339
0.0519659
0.00947025
8.837e-05
7.52697e-05
0.000626682
0.0127957
0.0412202
0.0409685
0.0366228
0.0267263
0.00356765
4.13944e-05
0.000594985
1.28529e-05
2.52001e-05
0.000198006
0.00431621
0.0230622
0.0233526
0.0241839
0.0246584
0.0245033
0.0238924
0.0229871
0.021871
0.0205699
0.0190807
0.0173768
0.0153507
0.0127127
0.00948692
0.00613917
0.00336122
0.00155594