/*--------------------------------*- C++ -*----------------------------------*\
| =========                 |                                                 |
| \\      /  F ield         | OpenFOAM: The Open Source CFD Toolbox           |
|  \\    /   O peration     | Version:  2.1.0                                 |
|   \\  /    A nd           | Web:      www.OpenFOAM.org                      |
|    \\/     M anipulation  |                                                 |
\*---------------------------------------------------------------------------*/
FoamFile
{
    version     2.0;
    format      ascii;
    class       surfaceScalarField;
    location    "28105";
    object      phi_o;
}
// * * * * * * * * * * * * * * * * * * * * * * * * * * * * * * * * * * * * * //

dimensions      [1 -2 -2 0 0 0 0];

internalField   nonuniform List<scalar> 
29750
(
18.5887
18.6216
11.2197
7.36906
7.75322
3.4692
5.87992
1.90207
4.78884
1.1844
4.12451
0.819455
3.69415
0.612927
3.39506
0.48258
3.17555
0.392626
3.00901
0.326401
2.88062
0.275357
2.78137
0.234661
2.70532
0.201375
2.64833
0.173612
2.60731
0.150108
2.57986
0.129986
2.56405
0.112633
2.55826
0.0976054
2.56108
0.0845782
2.57127
0.0733118
2.58769
0.0636203
2.60929
0.0553559
2.63512
0.0483951
2.66425
0.0426287
2.69587
0.0379566
2.72924
0.0342833
2.76367
0.0315149
2.79855
0.0295547
2.83331
0.0283062
2.86747
0.0276749
2.90058
0.0275752
2.93229
0.0279319
2.96226
0.0286799
2.99024
0.0297673
3.01599
0.0311495
3.0393
0.0327843
3.06001
0.0346257
3.07802
0.0366257
3.09325
0.0387294
3.1057
0.0408758
3.11542
0.0429964
3.12255
0.0450174
3.12729
0.0468634
3.1299
0.0484607
3.13072
0.0497449
3.13016
0.0506569
3.12866
0.0511454
3.1267
0.0511701
3.12478
0.0507038
3.12343
0.0497363
3.12315
0.0482769
3.12443
0.0463509
3.12771
0.0440007
3.13337
0.0412831
3.14173
0.0382646
3.15303
0.0350231
3.1674
0.0316447
3.18493
0.0282196
3.20557
0.0248392
3.22922
0.0215889
3.25567
0.0185494
3.28467
0.0157914
3.31589
0.0133717
3.34896
0.0113295
3.3835
0.00968662
3.41913
0.00844517
3.45547
0.00759364
3.49219
0.00710476
3.52899
0.00693369
3.5656
0.00702953
3.60182
0.00734137
3.6375
0.00782078
3.67255
0.00842215
3.70689
0.00910583
3.7405
0.00983799
3.77339
0.0105889
3.80558
0.0113291
3.83715
0.0120256
3.86819
0.0126429
3.89883
0.0131426
3.92926
0.0134811
3.95971
0.0136129
3.99048
0.0134964
4.02189
0.0130908
4.05431
0.0123538
4.08813
0.0112446
4.12379
0.00972346
4.16179
0.00776072
4.20262
0.00533163
4.24684
0.00241365
4.29502
-0.00102035
4.34776
-0.00500384
4.40573
-0.00958187
4.46963
-0.0148003
4.54024
-0.0207117
4.61842
-0.0273938
4.7051
-0.0349409
4.80138
-0.0434504
4.90847
-0.0530421
5.02776
-0.063863
5.16079
-0.0760939
5.30935
-0.0899405
5.4755
-0.105623
5.66158
-0.123384
5.87024
-0.143481
6.10445
-0.166183
6.36748
-0.191758
6.66288
-0.220409
6.99444
-0.252244
7.36595
-0.287196
7.78095
-0.324897
8.24236
-0.364539
8.75181
-0.404718
9.309
-0.443269
9.91093
-0.47722
10.5514
-0.50307
11.2212
-0.517564
11.9101
-0.519075
12.6104
-0.509413
13.322
-0.495153
14.0578
-0.486867
14.8449
-0.495743
15.7229
-0.529907
16.7372
-0.591648
17.9269
-0.682255
19.3037
-0.821161
20.7921
-1.0254
22.1969
-1.22172
23.3337
-1.2382
24.125
-0.987974
24.6072
-0.637528
24.8119
-0.297449
24.7554
0.006934
24.438
0.291918
23.8587
0.566366
23.0554
0.796707
22.1362
0.915939
21.1426
0.991921
20.037
1.10471
18.7497
1.28693
17.2335
1.51597
15.4998
1.73362
13.5977
1.90204
11.5989
1.9988
9.57258
2.02629
7.56828
2.00428
5.61114
1.95712
3.70556
1.90556
1.84144
1.86412
1.84145
7.33615
11.2856
7.31988
7.38567
6.18609
4.61427
5.16224
2.98219
4.4239
2.04771
3.91798
1.49834
3.5638
1.15493
3.3051
0.924292
3.10932
0.759254
2.95797
0.635121
2.83992
0.538104
2.74808
0.459997
2.67756
0.395643
2.62483
0.341659
2.58719
0.295744
2.56251
0.256296
2.54902
0.222179
2.54523
0.192567
2.54981
0.166858
2.56157
0.144595
2.57942
0.125429
2.60233
0.10908
2.62935
0.0953129
2.65958
0.0839211
2.6922
0.0747134
2.72647
0.0675018
2.76171
0.0620986
2.7973
0.0583064
2.83268
0.0559257
2.86737
0.0547662
2.90094
0.0546533
2.93303
0.0554374
2.96335
0.0569936
2.99162
0.0592216
3.01762
0.0620343
3.04114
0.0653505
3.06201
0.0690855
3.08012
0.0731459
3.09539
0.077422
3.10782
0.0817876
3.11744
0.0861025
3.1244
0.0902161
3.12889
0.0939791
3.13118
0.0972461
3.13164
0.0998813
3.13065
0.101761
3.12869
0.102779
3.12623
0.102852
3.12382
0.101928
3.12197
0.0999876
3.12123
0.0970474
3.12208
0.0931591
3.12499
0.0884063
3.13036
0.0829025
3.13849
0.0767864
3.14965
0.0702177
3.16398
0.0633741
3.18155
0.0564377
3.20232
0.0495918
3.22618
0.0430135
3.25292
0.0368673
3.28225
0.0312982
3.31385
0.026423
3.34731
0.0223204
3.38226
0.0190365
3.41827
0.0165804
3.45498
0.0149199
3.49202
0.0139886
3.52908
0.013697
3.56591
0.0139435
3.6023
0.0146232
3.6381
0.0156345
3.67323
0.0168856
3.70762
0.0182984
3.74125
0.0198073
3.77413
0.0213509
3.80628
0.0228702
3.83777
0.0243032
3.86869
0.0255834
3.89917
0.0266339
3.92939
0.0273705
3.9596
0.027702
3.99008
0.0275416
4.02115
0.0267983
4.0532
0.0253816
4.08661
0.0232117
4.12183
0.0202218
4.15936
0.0163577
4.1997
0.0115724
4.24341
0.00581607
4.29103
-0.00097159
4.34318
-0.00885166
4.40051
-0.0178986
4.46372
-0.0282064
4.53356
-0.0398903
4.61087
-0.0530894
4.69659
-0.0679724
4.79179
-0.0847374
4.89765
-0.10363
5.01553
-0.124954
5.14695
-0.149048
5.29367
-0.176299
5.45774
-0.207139
5.64148
-0.242049
5.84754
-0.28155
6.07888
-0.326171
6.33883
-0.37643
6.63105
-0.432763
6.95949
-0.495398
7.32825
-0.564231
7.74131
-0.638576
8.20218
-0.716859
8.71326
-0.796254
9.27505
-0.872305
9.88508
-0.93872
10.5369
-0.987737
11.2197
-1.01148
11.9198
-1.00495
12.6246
-0.970578
13.3303
-0.922336
14.0489
-0.885316
14.8107
-0.890159
15.6612
-0.977133
16.6466
-1.20373
17.788
-1.60752
19.0994
-2.13873
20.5958
-2.65302
22.1804
-2.93825
23.5839
-2.7309
24.4755
-1.93203
24.9473
-1.13869
25.1163
-0.482829
25.0404
0.0737866
24.7124
0.614687
24.089
1.18678
23.1746
1.70938
22.2121
1.87743
21.2554
1.9481
20.2192
2.14052
18.9787
2.52729
17.4512
3.04341
15.6682
3.51653
13.6944
3.87577
11.6264
4.06689
9.55057
4.10205
7.52112
4.03369
5.55958
3.91864
3.66413
3.80102
1.81876
3.7095
3.6602
3.43626
7.85189
4.54848
6.28455
4.55401
4.65217
4.22776
3.4127
3.87453
2.56112
3.57457
1.98498
3.33316
1.58522
3.14006
1.29684
2.98519
1.08053
2.86095
0.912622
2.76182
0.778473
2.68373
0.668729
2.62358
0.577212
2.57891
0.499718
2.54774
0.433323
2.52839
0.37595
2.51941
0.3261
2.51952
0.282681
2.52755
0.244878
2.54241
0.212079
2.56307
0.183808
2.58857
0.159684
2.61796
0.139387
2.65037
0.12263
2.68499
0.109141
2.72107
0.0986442
2.75792
0.0908537
2.79492
0.0854645
2.83152
0.0821691
2.86725
0.0806731
2.90172
0.080712
2.93459
0.0820602
2.96558
0.0845389
2.99444
0.0880038
3.02094
0.0923361
3.04488
0.0974263
3.06608
0.103159
3.0844
0.109396
3.09976
0.115974
3.11213
0.122701
3.12156
0.129359
3.12816
0.135722
3.13215
0.141556
3.13382
0.146637
3.13352
0.150751
3.13167
0.153704
3.12876
0.155332
3.12531
0.155508
3.12188
0.154149
3.11903
0.151225
3.11734
0.146759
3.11733
0.140829
3.11949
0.133563
3.12424
0.125136
3.13192
0.115765
3.1428
0.1057
3.15704
0.0952122
3.1747
0.0845845
3.19574
0.0740991
3.22003
0.0640326
3.24735
0.0546418
3.27738
0.0461507
3.30974
0.0387386
3.34403
0.0325352
3.3798
0.027611
3.41661
0.0239721
3.45405
0.0215652
3.49173
0.0202836
3.52933
0.0199826
3.56659
0.0204957
3.60331
0.0216537
3.63936
0.0232956
3.67464
0.0252817
3.70913
0.0274982
3.7428
0.0298496
3.77565
0.0322489
3.80771
0.034615
3.83905
0.0368635
3.86974
0.0388958
3.8999
0.0405953
3.92972
0.041834
3.95944
0.0424728
3.98933
0.0423721
4.01974
0.0413879
4.05103
0.039387
4.08362
0.0362492
4.11797
0.0318833
4.15457
0.0262079
4.19395
0.0191506
4.23662
0.0106423
4.28315
0.000609432
4.33414
-0.0110399
4.39021
-0.0244103
4.45204
-0.0396321
4.52036
-0.0568699
4.59599
-0.0763227
4.67983
-0.0982294
4.7729
-0.122894
4.87633
-0.150681
4.99143
-0.182015
5.11969
-0.217384
5.26283
-0.257352
5.42283
-0.302557
5.60198
-0.353701
5.80292
-0.411557
6.02862
-0.47693
6.2825
-0.550601
6.56841
-0.63325
6.89066
-0.725285
7.2539
-0.826633
7.66303
-0.936414
8.12278
-1.05246
8.63721
-1.1707
9.20863
-1.28451
9.83606
-1.38407
10.5132
-1.45638
11.2263
-1.48689
11.9542
-1.46466
12.6729
-1.39234
13.3673
-1.29987
14.0441
-1.25285
14.7238
-1.33367
15.4346
-1.60321
16.2428
-2.07431
17.2568
-2.73521
18.5851
-3.55846
20.3105
-4.43372
22.3878
-5.04577
24.3828
-4.74221
25.2688
-2.8273
25.6031
-1.47834
25.6729
-0.555814
25.5813
0.163529
25.2845
0.910295
24.6116
1.85892
23.3427
2.97784
22.2828
2.93701
21.4478
2.78293
20.606
2.98216
19.4948
3.63839
17.9243
4.61389
16.0274
5.41336
13.8856
6.01762
11.6615
6.2909
9.48221
6.28133
7.40607
6.10981
5.44196
5.88274
3.57261
5.67037
1.76947
5.51262
5.42965
1.86892
6.01075
2.91609
5.29246
3.31454
4.3572
3.37618
3.50513
3.29839
2.82294
3.17481
2.2998
3.04478
1.90025
2.92376
1.59114
2.81728
1.34735
2.7268
1.15112
2.65207
0.990099
2.59221
0.855687
2.54608
0.741846
2.51252
0.644276
2.49037
0.559878
2.47854
0.486394
2.47599
0.422163
2.48172
0.365952
2.49475
0.316835
2.51414
0.274109
2.53895
0.237226
2.56827
0.205748
2.6012
0.179301
2.63688
0.157542
2.67449
0.140131
2.71328
0.126713
2.75253
0.116895
2.79163
0.110256
2.83003
0.10637
2.86729
0.104826
2.90307
0.10526
2.93707
0.107373
2.96904
0.110932
2.99877
0.115766
3.02603
0.121739
3.05061
0.128732
3.07231
0.136607
3.09098
0.145192
3.10649
0.154271
3.11879
0.16358
3.12792
0.17282
3.134
0.181673
3.13723
0.189815
3.13793
0.196929
3.13647
0.202716
3.1333
0.206908
3.12894
0.209275
3.12395
0.209639
3.11895
0.207883
3.11457
0.203961
3.11141
0.1979
3.11006
0.189805
3.11106
0.179853
3.11487
0.168291
3.12186
0.155421
3.13232
0.141593
3.14641
0.127182
3.16422
0.11258
3.18568
0.0981844
3.21064
0.0843809
3.23886
0.0715265
3.26996
0.0599351
3.30354
0.0498617
3.33911
0.0414884
3.37616
0.0349161
3.41421
0.030152
3.45277
0.0271117
3.49143
0.0256325
3.52984
0.0254966
3.56775
0.0264549
3.60495
0.0282554
3.64134
0.030672
3.67686
0.0335156
3.71148
0.036636
3.74519
0.0399162
3.77801
0.0432575
3.80996
0.0465652
3.84108
0.0497369
3.87144
0.0526462
3.90114
0.055136
3.93036
0.057028
3.95934
0.0581312
3.98835
0.0582458
4.01774
0.0571675
4.04789
0.054719
4.07925
0.0507429
4.11229
0.0451112
4.14751
0.0377239
4.18544
0.0284997
4.22658
0.0173512
4.2715
0.00419535
4.32077
-0.0110687
4.37498
-0.0285737
4.4348
-0.0484812
4.50091
-0.0709918
4.57408
-0.0963576
4.65516
-0.124898
4.74511
-0.156998
4.84499
-0.193119
4.95606
-0.233793
5.07973
-0.279646
5.21763
-0.331403
5.37168
-0.38989
5.54413
-0.456017
5.73754
-0.530791
5.95495
-0.615294
6.19985
-0.710569
6.47638
-0.817531
6.78931
-0.93682
7.14412
-1.06853
7.54699
-1.21181
8.00454
-1.36428
8.5234
-1.52131
9.10907
-1.67501
9.76375
-1.81316
10.4826
-1.91859
11.2485
-1.97093
12.0265
-1.95448
12.7653
-1.87602
13.4143
-1.78538
13.9633
-1.77097
14.4542
-1.8965
14.9635
-2.20995
15.5819
-2.7668
16.4335
-3.63053
17.7099
-4.85761
19.6985
-6.43349
22.6914
-8.0441
26.2977
-8.35131
26.6178
-3.14909
26.5256
-1.38733
26.3923
-0.423124
26.3281
0.227292
26.2332
1.00489
25.7306
2.36128
23.3019
5.40639
22.1287
4.11003
21.647
3.26457
21.2622
3.36684
20.4703
4.43026
18.7238
6.36042
16.6317
7.50539
14.1588
8.49044
11.6519
8.79778
9.31069
8.6226
7.179
8.2415
5.22958
7.83215
3.41486
7.48507
1.68651
7.24094
7.11614
1.15064
4.9508
1.98083
4.58505
2.46247
4.03459
2.694
3.45738
2.77524
2.93345
2.77527
2.48743
2.73567
2.11741
2.67997
1.81228
2.62105
1.55961
2.56578
1.34851
2.51766
1.17024
2.47837
1.01806
2.44851
0.886891
2.42812
0.772895
2.41689
0.673192
2.41431
0.58561
2.41978
0.508514
2.4326
0.440665
2.45202
0.381124
2.47726
0.329171
2.50747
0.284252
2.54182
0.245917
2.57944
0.213777
2.61947
0.187463
2.66107
0.166589
2.70346
0.150719
2.74589
0.139352
2.78774
0.131938
2.82848
0.127904
2.86773
0.126705
2.90518
0.127861
2.94063
0.130992
2.97388
0.135823
3.00474
0.142174
3.03302
0.149925
3.05848
0.158968
3.0809
0.169168
3.10006
0.18033
3.11579
0.192182
3.12803
0.204383
3.13677
0.216536
3.14214
0.228215
3.14435
0.23899
3.14372
0.248439
3.14066
0.256172
3.13567
0.261835
3.1293
0.265125
3.12219
0.265802
3.11503
0.263706
3.1085
0.258766
3.10331
0.251014
3.10011
0.240581
3.0995
0.227703
3.102
0.212708
3.10803
0.195998
3.11791
0.17803
3.13181
0.159304
3.14982
0.140337
3.17187
0.121654
3.19779
0.103762
3.22727
0.0871355
3.25989
0.0721907
3.29517
0.0592746
3.33253
0.0486392
3.3714
0.0404181
3.41117
0.0346161
3.45129
0.0311084
3.49129
0.0296565
3.5308
0.0299384
3.56955
0.0315939
3.60737
0.0342698
3.64419
0.0376568
3.67998
0.041512
3.71476
0.0456568
3.74854
0.0499656
3.78132
0.0543468
3.81313
0.0587101
3.84399
0.0629422
3.87393
0.0668893
3.90303
0.0703589
3.93147
0.073116
3.95945
0.0749
3.98727
0.0754393
4.01529
0.0744688
4.04391
0.0717457
4.07362
0.0670773
4.1049
0.0603132
4.13829
0.0513334
4.17429
0.0400486
4.21343
0.0263869
4.25624
0.0102592
4.30326
-0.0084466
4.35508
-0.0298692
4.41229
-0.0541859
4.47554
-0.081632
4.54554
-0.112512
4.62306
-0.147202
4.70899
-0.186155
4.80432
-0.229905
4.91021
-0.279082
5.02797
-0.334435
5.15914
-0.396815
5.30556
-0.4672
5.46935
-0.546701
5.65304
-0.636528
5.85967
-0.737959
6.09289
-0.85227
6.35709
-0.980627
6.65759
-1.12393
7.00085
-1.28254
7.39452
-1.45596
7.84751
-1.64241
8.36969
-1.83841
8.97092
-2.03812
9.65833
-2.23301
10.4303
-2.41172
11.2649
-2.55836
12.1049
-2.64058
12.856
-2.59998
13.4288
-2.42064
13.8378
-2.26329
14.1408
-2.26407
14.4066
-2.51533
14.7182
-3.09962
15.2064
-4.12944
16.134
-5.79024
18.0878
-8.38958
22.3841
-12.3414
31.4999
-17.4676
28.3795
-30.1164
27.4898
-9.18907
27.0427
0.277275
27.1057
1.87166
27.5896
5.6601
28.7757
12.5739
22.0055
12.1765
21.2833
4.83218
21.7493
2.79851
22.3257
2.79043
22.4005
4.35543
19.8687
8.89215
17.6167
9.75734
14.4662
11.641
11.4768
11.7872
8.92959
11.1698
6.76964
10.4014
4.88251
9.71926
3.17073
9.19682
1.56171
8.84994
8.67784
0.784888
4.31833
1.43037
4.11088
1.88526
3.76584
2.17007
3.36397
2.32922
2.96224
2.40524
2.59063
2.43054
2.26036
2.42731
1.97236
2.40995
1.72292
2.3875
1.50688
2.36548
1.31913
2.3472
1.15515
2.33452
1.01118
2.32842
0.884203
2.32931
0.771817
2.33722
0.67214
2.35193
0.583714
2.37306
0.50541
2.40007
0.436365
2.43234
0.375918
2.46914
0.323566
2.50968
0.278903
2.55313
0.24157
2.5986
0.211211
2.6452
0.187415
2.69209
0.169675
2.73848
0.157372
2.78371
0.1498
2.82728
0.146206
2.86888
0.145865
2.90831
0.148153
2.94546
0.152599
2.98023
0.158902
3.01249
0.166911
3.04206
0.176561
3.06868
0.187806
3.09206
0.200542
3.11191
0.214564
3.128
0.229546
3.14018
0.245047
3.14845
0.260551
3.15291
0.2755
3.1538
0.289334
3.15145
0.301518
3.14632
0.311557
3.13896
0.319001
3.12998
0.323462
3.1201
0.324625
3.11009
0.322272
3.10075
0.316294
3.09288
0.306721
3.08723
0.29372
3.0845
0.277596
3.08529
0.258772
3.09006
0.237764
3.09918
0.215163
3.11285
0.191606
3.13114
0.16776
3.15398
0.14429
3.18116
0.121843
3.21232
0.101026
3.24697
0.0823875
3.28453
0.0663857
3.32431
0.0533589
3.3656
0.043489
3.40766
0.0367788
3.44984
0.0330468
3.49158
0.0319448
3.53246
0.0330074
3.57222
0.035718
3.61075
0.0395832
3.64804
0.0441893
3.68413
0.0492343
3.71907
0.054527
3.75292
0.0599628
3.78569
0.0654828
3.81737
0.0710208
3.84794
0.0764722
3.87739
0.0816647
3.90579
0.0863611
3.93325
0.0902596
3.95999
0.0930134
3.9863
0.094253
4.01256
0.0936369
4.03925
0.0908607
4.06686
0.0856796
4.09592
0.077916
4.12701
0.0674648
4.16063
0.0542467
4.1973
0.038196
4.23753
0.0192398
4.28184
-0.00272036
4.33076
-0.0278087
4.38484
-0.0562243
4.44466
-0.0882289
4.51085
-0.12416
4.58411
-0.164431
4.66524
-0.209543
4.75514
-0.260093
4.85486
-0.316784
4.96559
-0.38045
5.08876
-0.452046
5.22606
-0.53266
5.37953
-0.623532
5.55161
-0.726008
5.74536
-0.841477
5.96453
-0.97137
6.21379
-1.11704
6.49898
-1.27956
6.82743
-1.45968
7.20806
-1.65781
7.65152
-1.87446
8.16998
-2.11139
8.77603
-2.37435
9.47962
-2.67634
10.2837
-3.02901
11.1827
-3.39581
12.1455
-3.64153
13.0353
-3.55757
13.5861
-3.02724
13.837
-2.5498
13.8895
-2.33688
13.8223
-2.45885
13.6883
-2.97098
13.5456
-3.98926
13.5347
-5.78044
14.136
-8.99134
17.258
-15.4634
18.8511
-20.501
49.3068
-41.085
36.9562
-32.5708
28.6371
-6.37046
30.8941
14.0416
34.5034
17.5921
28.3782
8.52412
14.6612
2.18667
19.2496
3.01279
21.7412
3.72714
23.8907
7.18792
26.9372
14.4465
20.7339
15.0954
19.5004
10.9909
14.6124
16.5291
10.8593
15.5403
8.16124
13.8679
6.08747
12.4752
4.36007
11.4466
2.82385
10.733
1.38961
10.2842
10.0674
0.577434
3.92243
1.08533
3.79067
1.4834
3.55723
1.76833
3.26493
1.95761
2.95132
2.07498
2.64198
2.14253
2.3512
2.17786
2.0852
2.19391
1.84541
2.19975
1.63074
2.2015
1.43902
2.20323
1.26781
2.20754
1.11475
2.21603
0.977739
2.22963
0.854996
2.24879
0.745053
2.27363
0.646727
2.30401
0.559083
2.33963
0.481407
2.37998
0.413161
2.42447
0.353951
2.47235
0.30347
2.52277
0.261448
2.5748
0.227586
2.62746
0.20148
2.67979
0.182567
2.73091
0.170102
2.78011
0.163175
2.82694
0.160788
2.87117
0.161966
2.91276
0.165888
2.95176
0.171974
2.98824
0.179926
3.02214
0.189676
3.05331
0.201294
3.08142
0.214859
3.10608
0.230353
3.12689
0.24758
3.1435
0.266145
3.15569
0.285482
3.1634
0.304907
3.16675
0.323696
3.16598
0.341136
3.16149
0.356562
3.15377
0.369365
3.14342
0.378991
3.13114
0.384952
3.11774
0.386835
3.10411
0.384336
3.09118
0.3773
3.07988
0.365746
3.07111
0.349883
3.06568
0.330097
3.06428
0.306926
3.06746
0.281032
3.07562
0.253163
3.089
0.224123
3.10767
0.19474
3.13153
0.165841
3.16035
0.138234
3.19368
0.112684
3.23097
0.0899004
3.2715
0.0704856
3.31444
0.0548937
3.35888
0.0433776
3.40393
0.0359442
3.44874
0.0323353
3.49264
0.0320496
3.53517
0.0344107
3.57609
0.0386748
3.61536
0.0441473
3.65309
0.0502761
3.68942
0.0567027
3.72451
0.0632532
3.75844
0.0698849
3.79122
0.0766135
3.82282
0.0834366
3.85313
0.090282
3.88209
0.0969739
3.90969
0.103217
3.936
0.108618
3.96123
0.112715
3.98568
0.115019
4.00979
0.115071
4.03407
0.112492
4.05909
0.106996
4.08547
0.0983923
4.11379
0.0865783
4.14458
0.071514
4.17834
0.0531782
4.21557
0.0315374
4.25675
0.00652808
4.30234
-0.0219728
4.35284
-0.0541558
4.40873
-0.090295
4.47058
-0.130746
4.539
-0.175948
4.61469
-0.226437
4.69845
-0.282849
4.79119
-0.345935
4.89399
-0.416559
5.00814
-0.495728
5.13518
-0.584586
5.27705
-0.684394
5.43614
-0.79652
5.61547
-0.922391
5.81887
-1.06342
6.05126
-1.2209
6.31887
-1.39597
6.6293
-1.58997
6.99141
-1.80545
7.41458
-2.04901
7.90703
-2.33772
8.47403
-2.70761
9.12695
-3.20188
9.91685
-3.81607
10.937
-4.46941
12.2295
-4.983
13.5656
-4.92427
14.0635
-3.54272
14.0499
-2.54588
13.7675
-2.05973
13.3102
-2.00426
12.67
-2.33216
11.7545
-3.07433
10.3238
-4.35007
7.66395
-6.33159
12.2204
-8.95461
-1.73291
-14.7724
57.8211
-6.61103
63.1565
-12.929
49.0492
1.50569
34.4446
11.1611
25.4354
16.9799
22.0408
22.6256
15.4873
25.1037
19.9639
28.8639
25.202
29.438
31.1492
19.3052
27.5861
13.6988
16.6294
12.6699
25.0386
29.6667
13.6236
27.9441
9.18691
19.977
6.76855
16.2862
5.05893
14.1848
3.64647
12.8591
2.37498
12.0045
1.17289
11.4863
11.2403
0.445672
3.66116
0.851893
3.56885
1.1911
3.39916
1.45472
3.17626
1.64828
2.92465
1.7842
2.66395
1.87653
2.40757
1.93807
2.16346
1.97924
1.93563
2.00803
1.72556
2.03029
1.53324
2.05017
1.35792
2.07053
1.19848
2.09329
1.05373
2.11969
0.922535
2.15046
0.80387
2.18598
0.696876
2.22634
0.600863
2.27138
0.515312
2.32077
0.439861
2.37399
0.374278
2.43033
0.318419
2.48891
0.272165
2.54869
0.235333
2.60855
0.207579
2.66732
0.188316
2.72398
0.176658
2.77772
0.171429
2.82812
0.171271
2.87509
0.174831
2.91885
0.180996
2.95971
0.189054
2.99799
0.198745
3.03376
0.210191
3.06687
0.223716
3.09691
0.239644
3.12331
0.258112
3.14545
0.278959
3.16283
0.301692
3.17511
0.325559
3.18219
0.349647
3.18419
0.373003
3.18141
0.39473
3.17429
0.41402
3.16339
0.430152
3.14938
0.442468
3.13302
0.450355
3.11525
0.45327
3.09708
0.450791
3.07962
0.442685
3.06402
0.428952
3.05132
0.409846
3.04251
0.38586
3.03839
0.357685
3.03959
0.326162
3.04658
0.292233
3.05962
0.256893
3.07877
0.221153
3.10393
0.18602
3.1348
0.152485
3.1709
0.121509
3.21156
0.0939871
3.25591
0.0707148
3.30293
0.0523119
3.35145
0.0391441
3.40032
0.0312456
3.44845
0.0282633
3.495
0.0294732
3.53943
0.0338818
3.58156
0.0403985
3.62149
0.0480322
3.65951
0.0560484
3.69597
0.0640376
3.73114
0.0718915
3.76517
0.0797045
3.79805
0.0876421
3.82966
0.0958318
3.85982
0.104267
3.88833
0.112766
3.91509
0.120962
3.9401
0.128336
3.96353
0.134261
3.98574
0.138091
4.00721
0.139218
4.02857
0.13715
4.05049
0.131541
4.07366
0.122218
4.09872
0.10912
4.12624
0.0922722
4.1567
0.0717271
4.19056
0.0475239
4.22825
0.0196507
4.27016
-0.0119907
4.3167
-0.0475723
4.36828
-0.0873766
4.42538
-0.131771
4.48851
-0.18121
4.55828
-0.236239
4.63537
-0.297494
4.72057
-0.365719
4.81482
-0.441773
4.91928
-0.526642
5.03537
-0.621436
5.16493
-0.727337
5.31027
-0.845588
5.47444
-0.977424
5.66139
-1.12396
5.87619
-1.28618
6.12487
-1.46531
6.41382
-1.66406
6.74785
-1.89046
7.12587
-2.16673
7.53713
-2.54075
7.97976
-3.06841
8.51277
-3.76209
9.26351
-4.61769
10.4234
-5.66236
12.2882
-6.86392
14.9472
-7.59059
15.0604
-3.65989
14.536
-2.02377
13.823
-1.34782
12.9823
-1.16423
11.9279
-1.278
10.4787
-1.62532
8.34226
-2.21371
5.04093
-3.0303
6.40256
-4.47771
6.42849
-7.0244
51.5031
-4.05656
77.5912
9.89855
58.7046
20.3925
40.2634
29.6033
31.0811
41.5549
24.5189
50.3978
19.2475
54.8558
20.538
55.761
15.0692
50.1186
25.5428
42.279
26.5573
41.2338
33.6261
54.3304
23.3161
48.9696
5.65649
24.3166
5.49613
20.1373
4.66713
17.1152
3.73324
15.1187
2.79191
13.8005
1.85671
12.9398
0.926959
12.416
12.1673
0.353366
3.4834
0.682201
3.41351
0.968194
3.2822
1.20311
3.10412
1.38758
2.89559
1.52782
2.67127
1.63242
2.44259
1.71024
2.21756
1.76917
2.0013
1.81572
1.79678
1.85497
1.60545
1.89073
1.4278
1.92578
1.26375
1.96209
1.11288
2.00102
0.974651
2.04347
0.848464
2.08997
0.733784
2.14079
0.630175
2.19593
0.537337
2.25519
0.455117
2.31813
0.383497
2.38407
0.322559
2.45207
0.27241
2.52094
0.23307
2.58929
0.204348
2.65567
0.185697
2.71875
0.176085
2.77757
0.173969
2.83168
0.177436
2.88126
0.184536
2.9269
0.193692
2.96941
0.20401
3.00943
0.215351
3.04729
0.228194
3.0828
0.243329
3.11538
0.261508
3.14416
0.283136
3.16819
0.308106
3.1867
0.335779
3.1992
0.365108
3.20555
0.39483
3.20591
0.423673
3.2007
0.450509
3.19043
0.4744
3.17571
0.494539
3.15726
0.510171
3.13594
0.52054
3.11277
0.524917
3.08897
0.522703
3.06589
0.513534
3.04491
0.497376
3.02734
0.474542
3.01433
0.44567
3.00686
0.411656
3.00566
0.373574
3.01124
0.332602
3.02388
0.289955
3.04364
0.246852
3.07039
0.2045
3.10382
0.16409
3.14338
0.126797
3.18829
0.0937564
3.23751
0.0660132
3.28976
0.044437
3.34355
0.0295902
3.39734
0.0215823
3.44966
0.0199528
3.49941
0.0236567
3.54595
0.0312094
3.58919
0.0409753
3.6295
0.0515094
3.6675
0.0618241
3.70382
0.0714875
3.73895
0.0805543
3.7731
0.0893838
3.80624
0.0984176
3.8381
0.107991
3.86832
0.118205
3.89653
0.128879
3.92246
0.139549
3.94602
0.14952
3.96737
0.157941
3.98686
0.163911
4.00514
0.166614
4.02296
0.165417
4.04116
0.159918
4.06056
0.149964
4.08187
0.135588
4.1057
0.116937
4.1325
0.0941981
4.16269
0.06752
4.19661
0.036961
4.23458
0.00246674
4.27689
-0.0361453
4.32389
-0.0791441
4.37594
-0.126891
4.43348
-0.179832
4.49702
-0.238491
4.56714
-0.303467
4.64451
-0.375459
4.72996
-0.45527
4.82449
-0.543777
4.92947
-0.641914
5.04668
-0.750651
5.17843
-0.870894
5.3279
-1.00338
5.49917
-1.14862
5.69706
-1.30721
5.92612
-1.48102
6.18743
-1.67735
6.47157
-1.91918
6.75185
-2.25767
7.00947
-2.74616
7.28609
-3.38566
7.65716
-4.17833
8.21884
-5.20303
9.22186
-6.67485
11.5616
-9.20699
18.8779
-14.9081
16.6965
-16.2623
15.212
-7.78949
14.0066
-2.78598
12.8685
-0.405945
11.5806
0.147457
9.89033
0.813604
7.52567
1.73385
3.59352
0.901736
3.85587
-1.21136
9.39633
-2.70008
65.4582
25.0363
88.0852
45.4009
67.9154
40.5636
52.2151
45.3039
39.9239
53.8448
28.9769
61.3442
20.1527
63.6804
14.8955
61.0186
7.22964
57.7844
24.4976
63.0248
39.6539
64.1986
28.2653
55.2889
-1.33695
29.9679
1.4772
22.7458
2.47401
19.1405
2.67064
16.9186
2.41501
15.3743
1.93119
14.2843
1.33296
13.538
0.678246
13.0707
12.8455
0.283475
3.36344
0.550894
3.30707
0.790109
3.19968
0.994582
3.05077
1.16327
2.87167
1.29914
2.67344
1.40739
2.46559
1.49398
2.25558
1.56464
2.04889
1.62439
1.84927
1.67732
1.65913
1.72668
1.47984
1.77492
1.3121
1.82386
1.15612
1.87483
1.01182
1.92879
0.878968
1.98636
0.757317
2.04795
0.646661
2.11371
0.546918
2.18357
0.458161
2.25719
0.380626
2.33393
0.314683
2.41273
0.260753
2.49222
0.219201
2.57064
0.190144
2.64605
0.173206
2.71663
0.167248
2.78103
0.170216
2.83878
0.179307
2.89041
0.191567
2.93722
0.204652
2.98075
0.217403
3.02228
0.229951
3.06242
0.243432
3.10098
0.259452
3.13701
0.279494
3.16912
0.304413
3.19586
0.334165
3.21603
0.367849
3.22892
0.403928
3.23439
0.440578
3.23275
0.476054
3.22459
0.508957
3.21056
0.538271
3.19134
0.563192
3.16763
0.582911
3.14032
0.596499
3.11055
0.602951
3.0798
0.601373
3.04973
0.591192
3.02208
0.572302
2.99846
0.545108
2.98032
0.510461
2.96878
0.469544
2.96469
0.423741
2.9686
0.37452
2.98077
0.323353
3.00128
0.271684
3.02998
0.220926
3.06653
0.172478
3.11034
0.127746
3.16054
0.088148
3.21593
0.0550717
3.27491
0.0297644
3.33555
0.0131339
3.39571
0.00548546
3.45336
0.00626223
3.50696
0.0139543
3.55571
0.0262934
3.59973
0.0407557
3.63982
0.0551805
3.67716
0.0682308
3.71289
0.0795189
3.74778
0.0894448
3.78214
0.0988531
3.81581
0.108653
3.84831
0.119511
3.87899
0.131691
3.9072
0.144998
3.93243
0.158837
3.95445
0.172255
3.97334
0.184075
3.98957
0.193032
4.00394
0.197986
4.01746
0.19808
4.03121
0.192864
4.04619
0.182263
4.06322
0.166491
4.08296
0.145912
4.10582
0.120903
4.13213
0.091768
4.16211
0.0586574
4.19597
0.0215523
4.2339
-0.0197167
4.27614
-0.0653901
4.323
-0.115835
4.37482
-0.171484
4.43205
-0.232808
4.49515
-0.300338
4.5647
-0.374669
4.64145
-0.456445
4.72635
-0.546329
4.82074
-0.644945
4.92643
-0.752814
5.04595
-0.870227
5.18266
-0.997151
5.34058
-1.13337
5.52325
-1.27954
5.72978
-1.44133
5.9456
-1.64036
6.13308
-1.92802
6.26336
-2.35259
6.36998
-2.89898
6.49341
-3.54958
6.63247
-4.33593
6.74702
-5.32417
6.68971
-6.61956
5.86048
-8.37831
17.5237
-10.6417
25.1693
-20.8334
20.2155
-21.2407
16.3866
-12.409
13.4219
-2.65891
12.2467
4.35969
10.8106
5.35916
6.69356
1.84388
1.48043
0.0796231
2.36715
0.991589
37.1327
1.56533
85.8228
34.9313
83.2479
47.9766
72.6556
51.156
60.756
57.2017
47.4233
67.1766
31.3131
77.4548
17.491
77.503
11.6614
66.848
12.47
56.9757
25.6714
49.8237
30.7442
39.1583
2.94434
18.4747
-8.55908
10.6709
-2.12808
16.3148
0.252098
16.7603
1.12639
16.0443
1.32497
15.1758
1.18487
14.4244
0.865703
13.8572
0.453066
13.4834
13.2986
0.227106
3.28785
0.443499
3.23978
0.641202
3.14732
0.815486
3.01708
0.965037
2.85733
1.09128
2.67668
1.19739
2.48314
1.28729
2.28357
1.36503
2.08349
1.43424
1.88708
1.49804
1.69733
1.55894
1.51625
1.61893
1.34507
1.67956
1.18445
1.74199
1.03464
1.80714
0.895683
1.87571
0.76753
1.94821
0.650162
2.02495
0.543679
2.10604
0.448374
2.19125
0.364754
2.28
0.29353
2.37118
0.235574
2.46316
0.191785
2.5537
0.162853
2.6401
0.148841
2.7196
0.148651
2.79012
0.159563
2.85104
0.177288
2.9035
0.197106
2.94997
0.215323
2.9933
0.230415
3.03576
0.243071
3.07844
0.25561
3.12102
0.271059
3.16193
0.292139
3.19888
0.32041
3.22955
0.355874
3.25211
0.39713
3.26557
0.44181
3.26987
0.487157
3.26565
0.530683
3.2539
0.57069
3.23549
0.606252
3.21106
0.63678
3.18122
0.661529
3.14677
0.679349
3.10898
0.688788
3.06962
0.688436
3.03084
0.677357
2.99488
0.65534
2.96382
0.622942
2.9394
0.581351
2.92298
0.532166
2.91547
0.477188
2.91743
0.418249
2.9291
0.357118
2.95053
0.295477
2.98153
0.234924
3.0218
0.177043
3.07074
0.123465
3.12747
0.0759291
3.19063
0.0362806
3.25828
0.00634749
3.3279
-0.0123375
3.39648
-0.0190378
3.46106
-0.0143134
3.5193
-0.00034659
3.57018
0.0192978
3.61415
0.0406099
3.65287
0.0602642
3.68845
0.0764309
3.72282
0.0889308
3.75719
0.0988593
3.79194
0.107936
3.82667
0.117836
3.86049
0.129708
3.8923
0.144011
3.92104
0.160541
3.94585
0.178493
3.96627
0.196559
3.98229
0.213061
3.99452
0.226161
4.00404
0.234218
4.01225
0.236077
4.02061
0.23125
4.03041
0.219835
4.04264
0.202354
4.05795
0.179523
4.07669
0.152025
4.09902
0.120368
4.12501
0.0848072
4.1547
0.0453748
4.18822
0.00191218
4.2257
-0.0458973
4.26735
-0.0983967
4.3135
-0.155954
4.36452
-0.21896
4.42082
-0.287839
4.48292
-0.363007
4.55157
-0.444832
4.62774
-0.533609
4.71287
-0.629475
4.80902
-0.732264
4.91903
-0.841378
5.04644
-0.955793
5.19441
-1.07493
5.36147
-1.20254
5.53074
-1.35813
5.65794
-1.59247
5.70851
-1.95142
5.71697
-2.4097
5.71937
-2.93891
5.70707
-3.55298
5.64422
-4.27828
5.45163
-5.13308
4.93095
-6.09922
3.59714
-7.04461
7.33193
-7.61913
24.762
-12.0148
29.0473
-9.05887
26.1367
-0.381974
20.4406
0.458005
13.2462
4.44385
7.29529
9.41955
4.9293
16.8227
2.3924
25.6783
2.94089
39.6443
70.4987
66.2051
98.8681
74.4279
86.4273
60.4172
78.7013
58.8804
70.7309
65.1711
57.7015
80.2065
31.3613
103.795
6.83603
102.028
1.78906
71.8947
5.31802
53.447
15.0059
40.1363
10.0606
27.2188
-4.85944
15.0046
-2.91523
13.5425
-1.68254
15.0821
-0.46392
15.5417
0.257863
15.3225
0.573605
14.86
0.617618
14.3804
0.491917
13.9829
0.268315
13.707
13.5669
0.17904
3.24949
0.351038
3.20634
0.510964
3.12274
0.655735
3.00363
0.784387
2.85542
0.897741
2.68516
0.997816
2.49986
1.08721
2.30595
1.16861
2.10894
1.24449
1.91332
1.31696
1.72248
1.38776
1.53884
1.45831
1.36397
1.52975
1.19879
1.60303
1.04375
1.67899
0.899024
1.75834
0.764656
1.84172
0.640726
1.92965
0.527459
2.02242
0.425316
2.12003
0.335062
2.22204
0.257811
2.32739
0.195027
2.43423
0.148404
2.53969
0.119603
2.63991
0.109681
2.73051
0.118049
2.80785
0.14126
2.87086
0.172397
2.92172
0.203522
2.96506
0.22845
3.00595
0.245233
3.0483
0.255716
3.09389
0.264322
3.1421
0.276508
3.1902
0.297086
3.23434
0.328733
3.2708
0.371342
3.29679
0.422566
3.31092
0.47863
3.31339
0.535183
3.30566
0.588481
3.28946
0.636538
3.26601
0.67896
3.23581
0.715858
3.19904
0.746801
3.15621
0.770327
3.10862
0.784173
3.05854
0.786003
3.00883
0.774247
2.96248
0.748556
2.92223
0.709783
2.89022
0.659663
2.868
0.600425
2.85653
0.534442
2.8563
0.464016
2.86746
0.391253
2.88997
0.318047
2.92365
0.246133
2.96822
0.1772
3.0232
0.113044
3.08782
0.0557369
3.16069
0.00770213
3.2396
-0.028343
3.3212
-0.0498171
3.40121
-0.0550047
3.47502
-0.0441465
3.53894