/*--------------------------------*- C++ -*----------------------------------*\
| =========                 |                                                 |
| \\      /  F ield         | OpenFOAM: The Open Source CFD Toolbox           |
|  \\    /   O peration     | Version:  2.1.0                                 |
|   \\  /    A nd           | Web:      www.OpenFOAM.org                      |
|    \\/     M anipulation  |                                                 |
\*---------------------------------------------------------------------------*/
FoamFile
{
    version     2.0;
    format      ascii;
    class       volScalarField;
    location    "28105";
    object      po;
}
// * * * * * * * * * * * * * * * * * * * * * * * * * * * * * * * * * * * * * //

dimensions      [1 -1 -2 0 0 0 0];

internalField   nonuniform List<scalar> 
15000
(
6598.12
6579.53
6568.31
6560.56
6554.68
6549.89
6545.77
6542.07
6538.68
6535.5
6532.49
6529.61
6526.83
6524.13
6521.48
6518.87
6516.29
6513.73
6511.17
6508.61
6506.04
6503.45
6500.84
6498.2
6495.54
6492.84
6490.12
6487.35
6484.55
6481.72
6478.85
6475.95
6473.02
6470.06
6467.07
6464.05
6461.01
6457.95
6454.87
6451.78
6448.67
6445.56
6442.44
6439.31
6436.18
6433.05
6429.92
6426.79
6423.66
6420.54
6417.42
6414.29
6411.17
6408.04
6404.91
6401.76
6398.61
6395.44
6392.26
6389.05
6385.82
6382.57
6379.28
6375.97
6372.62
6369.24
6365.82
6362.36
6358.87
6355.34
6351.77
6348.17
6344.54
6340.86
6337.16
6333.42
6329.64
6325.84
6322
6318.13
6314.23
6310.3
6306.34
6302.35
6298.33
6294.28
6290.19
6286.06
6281.9
6277.7
6273.45
6269.16
6264.81
6260.4
6255.94
6251.4
6246.78
6242.07
6237.27
6232.36
6227.33
6222.17
6216.86
6211.39
6205.73
6199.86
6193.75
6187.38
6180.72
6173.73
6166.36
6158.58
6150.34
6141.59
6132.28
6122.37
6111.81
6100.59
6088.68
6076.07
6062.75
6048.69
6033.85
6018.13
6001.39
5983.46
5964.16
5943.37
5921.17
5897.83
5873.71
5849.1
5824.29
5799.54
5775.1
5751.24
5728.18
5706.05
5684.9
5664.87
5646.12
5628.88
5613.38
5599.79
5588.19
5578.62
5571.05
5565.44
5561.73
5559.89
6579.5
6572.17
6564.85
6558.66
6553.5
6549.07
6545.16
6541.59
6538.29
6535.18
6532.22
6529.38
6526.63
6523.95
6521.33
6518.74
6516.18
6513.63
6511.08
6508.53
6505.97
6503.39
6500.79
6498.16
6495.5
6492.81
6490.08
6487.32
6484.52
6481.69
6478.82
6475.92
6472.99
6470.03
6467.04
6464.02
6460.98
6457.92
6454.84
6451.74
6448.63
6445.51
6442.39
6439.26
6436.13
6433
6429.87
6426.74
6423.61
6420.49
6417.37
6414.25
6411.12
6408
6404.87
6401.73
6398.58
6395.42
6392.23
6389.03
6385.81
6382.55
6379.27
6375.96
6372.61
6369.23
6365.81
6362.35
6358.86
6355.33
6351.77
6348.17
6344.53
6340.85
6337.15
6333.4
6329.63
6325.82
6321.99
6318.12
6314.22
6310.29
6306.33
6302.34
6298.32
6294.27
6290.18
6286.06
6281.9
6277.7
6273.45
6269.16
6264.82
6260.42
6255.96
6251.42
6246.81
6242.11
6237.32
6232.43
6227.41
6222.26
6216.97
6211.51
6205.87
6200.02
6193.94
6187.6
6180.97
6174.01
6166.69
6158.94
6150.74
6142.03
6132.75
6122.87
6112.33
6101.11
6089.19
6076.57
6063.24
6049.19
6034.38
6018.72
6002.07
5984.28
5965.18
5944.59
5922.41
5898.82
5874.35
5849.4
5824.28
5799.24
5774.53
5750.44
5727.27
5705.06
5683.8
5663.58
5644.6
5627.15
5611.48
5597.79
5586.16
5576.61
5569.09
5563.53
5559.87
5558.05
6568.22
6564.78
6560.23
6555.68
6551.45
6547.57
6544
6540.67
6537.53
6534.54
6531.68
6528.92
6526.24
6523.61
6521.03
6518.49
6515.96
6513.44
6510.92
6508.39
6505.85
6503.28
6500.7
6498.08
6495.43
6492.74
6490.02
6487.26
6484.47
6481.64
6478.77
6475.87
6472.93
6469.97
6466.97
6463.95
6460.91
6457.84
6454.76
6451.66
6448.55
6445.42
6442.3
6439.16
6436.03
6432.9
6429.76
6426.64
6423.51
6420.39
6417.27
6414.15
6411.04
6407.92
6404.79
6401.66
6398.52
6395.36
6392.19
6388.99
6385.77
6382.52
6379.24
6375.93
6372.59
6369.21
6365.79
6362.34
6358.85
6355.32
6351.75
6348.15
6344.51
6340.84
6337.13
6333.38
6329.61
6325.8
6321.96
6318.09
6314.19
6310.26
6306.3
6302.31
6298.29
6294.24
6290.16
6286.04
6281.89
6277.69
6273.46
6269.17
6264.84
6260.45
6256
6251.48
6246.88
6242.2
6237.43
6232.55
6227.56
6222.44
6217.18
6211.75
6206.15
6200.35
6194.32
6188.04
6181.47
6174.58
6167.32
6159.66
6151.54
6142.9
6133.69
6123.86
6113.34
6102.12
6090.16
6077.49
6064.12
6050.08
6035.36
6019.92
6003.68
5986.42
5967.84
5947.53
5925.14
5900.75
5875.49
5849.88
5824.21
5798.63
5773.34
5748.73
5725.39
5703.11
5681.66
5661.05
5641.56
5623.63
5607.61
5593.72
5582.06
5572.58
5565.17
5559.73
5556.16
5554.39
6560.36
6558.5
6555.58
6552.26
6548.89
6545.59
6542.42
6539.37
6536.45
6533.63
6530.9
6528.25
6525.66
6523.11
6520.6
6518.11
6515.63
6513.15
6510.67
6508.18
6505.66
6503.13
6500.56
6497.96
6495.32
6492.64
6489.93
6487.18
6484.39
6481.56
6478.69
6475.79
6472.85
6469.88
6466.88
6463.86
6460.8
6457.73
6454.64
6451.54
6448.42
6445.29
6442.15
6439.02
6435.88
6432.74
6429.61
6426.48
6423.36
6420.24
6417.12
6414.01
6410.9
6407.79
6404.68
6401.55
6398.42
6395.28
6392.11
6388.93
6385.71
6382.48
6379.21
6375.9
6372.56
6369.19
6365.77
6362.32
6358.83
6355.3
6351.73
6348.13
6344.48
6340.81
6337.1
6333.35
6329.57
6325.76
6321.92
6318.05
6314.15
6310.22
6306.26
6302.27
6298.25
6294.21
6290.13
6286.01
6281.87
6277.68
6273.45
6269.18
6264.86
6260.49
6256.05
6251.55
6246.98
6242.32
6237.58
6232.73
6227.78
6222.7
6217.48
6212.11
6206.56
6200.83
6194.87
6188.67
6182.19
6175.41
6168.26
6160.71
6152.71
6144.19
6135.08
6125.31
6114.83
6103.58
6091.56
6078.79
6065.38
6051.41
6036.96
6022
6006.41
5989.98
5972.27
5952.57
5929.88
5903.58
5876.96
5850.44
5824.05
5797.72
5771.49
5745.75
5722.45
5700.32
5678.68
5657.42
5636.94
5618.22
5601.59
5587.43
5575.78
5566.47
5559.29
5554.06
5550.64
5548.96
6554.35
6553.2
6551.22
6548.76
6546.07
6543.29
6540.51
6537.78
6535.1
6532.48
6529.91
6527.39
6524.92
6522.47
6520.04
6517.62
6515.21
6512.79
6510.36
6507.9
6505.43
6502.92
6500.38
6497.8
6495.18
6492.52
6489.81
6487.07
6484.28
6481.45
6478.58
6475.68
6472.74
6469.76
6466.76
6463.73
6460.67
6457.59
6454.49
6451.37
6448.24
6445.11
6441.96
6438.82
6435.68
6432.54
6429.4
6426.27
6423.15
6420.03
6416.93
6413.82
6410.72
6407.62
6404.52
6401.41
6398.29
6395.16
6392.01
6388.84
6385.64
6382.42
6379.16
6375.86
6372.53
6369.16
6365.75
6362.29
6358.8
6355.27
6351.7
6348.1
6344.45
6340.77
6337.06
6333.31
6329.53
6325.71
6321.87
6318
6314.09
6310.16
6306.2
6302.21
6298.2
6294.16
6290.08
6285.98
6281.84
6277.66
6273.45
6269.19
6264.89
6260.54
6256.12
6251.65
6247.1
6242.48
6237.77
6232.97
6228.06
6223.03
6217.87
6212.56
6207.09
6201.44
6195.58
6189.49
6183.13
6176.47
6169.47
6162.08
6154.23
6145.86
6136.89
6127.23
6116.8
6105.54
6093.43
6080.58
6067.15
6053.31
6039.17
6024.76
6010.04
5994.84
5978.7
5960.62
5938.23
5906.73
5878.35
5850.86
5823.82
5796.71
5769.12
5740.35
5718.34
5697.06
5675.31
5652.98
5630.58
5610.72
5593.1
5578.63
5567.16
5558.23
5551.46
5546.57
5543.4
5541.84
6549.4
6548.62
6547.19
6545.3
6543.13
6540.8
6538.4
6535.97
6533.54
6531.13
6528.74
6526.38
6524.03
6521.69
6519.37
6517.04
6514.7
6512.35
6509.98
6507.57
6505.14
6502.67
6500.16
6497.61
6495.01
6492.37
6489.67
6486.94
6484.15
6481.33
6478.46
6475.55
6472.6
6469.62
6466.61
6463.57
6460.5
6457.41
6454.3
6451.17
6448.03
6444.88
6441.73
6438.57
6435.42
6432.27
6429.14
6426.01
6422.89
6419.78
6416.67
6413.58
6410.49
6407.41
6404.32
6401.23
6398.14
6395.02
6391.89
6388.74
6385.56
6382.34
6379.1
6375.81
6372.49
6369.12
6365.71
6362.26
6358.77
6355.24
6351.67
6348.06
6344.41
6340.73
6337.01
6333.25
6329.47
6325.65
6321.8
6317.93
6314.02
6310.09
6306.13
6302.14
6298.13
6294.09
6290.02
6285.93
6281.8
6277.64
6273.44
6269.2
6264.92
6260.59
6256.21
6251.76
6247.25
6242.67
6238
6233.25
6228.39
6223.42
6218.34
6213.11
6207.73
6202.18
6196.43
6190.47
6184.26
6177.76
6170.93
6163.72
6156.07
6147.9
6139.12
6129.64
6119.36
6108.18
6096.03
6083
6069.41
6055.57
6041.68
6027.86
6014.17
6000.63
5987.09
5972.96
5955.7
5936.85
5887.54
5850.58
5821.95
5791.05
5756.55
5728.17
5713.51
5694.26
5672.52
5648.63
5621.69
5600.96
5581.46
5566.85
5555.99
5547.82
5541.74
5537.38
5534.55
5533.16
6545.08
6544.51
6543.42
6541.94
6540.17
6538.21
6536.14
6533.99
6531.82
6529.62
6527.42
6525.22
6523.02
6520.81
6518.59
6516.37
6514.12
6511.84
6509.54
6507.2
6504.82
6502.39
6499.92
6497.4
6494.82
6492.2
6489.52
6486.79
6484.01
6481.18
6478.31
6475.4
6472.44
6469.46
6466.43
6463.38
6460.3
6457.19
6454.07
6450.92
6447.77
6444.6
6441.44
6438.27
6435.11
6431.96
6428.81
6425.68
6422.56
6419.46
6416.37
6413.29
6410.22
6407.15
6404.09
6401.02
6397.94
6394.85
6391.75
6388.62
6385.45
6382.26
6379.03
6375.76
6372.44
6369.09
6365.68
6362.23
6358.74
6355.21
6351.63
6348.01
6344.36
6340.67
6336.95
6333.19
6329.4
6325.57
6321.72
6317.84
6313.93
6309.99
6306.03
6302.05
6298.04
6294
6289.94
6285.86
6281.74
6277.6
6273.42
6269.21
6264.95
6260.65
6256.29
6251.88
6247.41
6242.88
6238.26
6233.56
6228.77
6223.88
6218.87
6213.73
6208.46
6203.02
6197.4
6191.59
6185.53
6179.22
6172.59
6165.6
6158.18
6150.27
6141.8
6132.67
6122.76
6111.82
6099.59
6086.02
6071.96
6057.91
6044.14
6030.83
6018.16
6006.41
5996.08
5988.42
5976.2
5977.93
5920.11
5856.96
5807.91
5773.46
5748.03
5725.99
5710.5
5690.53
5665.33
5634.18
5606.6
5589.97
5564.93
5551.31
5542.12
5535.35
5530.29
5526.64
5524.27
5523.1
6541.16
6540.72
6539.86
6538.67
6537.22
6535.57
6533.79
6531.91
6529.97
6527.99
6525.98
6523.95
6521.9
6519.83
6517.74
6515.62
6513.47
6511.28
6509.06
6506.79
6504.47
6502.09
6499.66
6497.17
6494.62
6492.01
6489.35
6486.62
6483.85
6481.02
6478.14
6475.22
6472.26
6469.27
6466.23
6463.17
6460.07
6456.95
6453.8
6450.64
6447.46
6444.28
6441.1
6437.91
6434.74
6431.58
6428.43
6425.29
6422.18
6419.08
6416
6412.94
6409.89
6406.84
6403.81
6400.77
6397.72
6394.66
6391.58
6388.48
6385.34
6382.17
6378.96
6375.7
6372.4
6369.05
6365.65
6362.2
6358.71
6355.17
6351.58
6347.96
6344.3
6340.61
6336.88
6333.11
6329.31
6325.48
6321.62
6317.74
6313.82
6309.88
6305.92
6301.93
6297.92
6293.9
6289.84
6285.77
6281.67
6277.55
6273.39
6269.2
6264.97
6260.7
6256.38
6252.02
6247.59
6243.1
6238.54
6233.91
6229.19
6224.37
6219.45
6214.42
6209.25
6203.94
6198.47
6192.81
6186.93
6180.81
6174.39
6167.64
6160.52
6152.98
6145
6136.49
6127.23
6116.8
6104.51
6089.57
6074.51
6059.97
6046.15
6033.16
6021.24
6010.76
6002.42
5997.37
5990.97
5984.54
5933.04
5855.45
5796.74
5756.48
5725.4
5700.88
5681.63
5661.1
5646.03
5620.48
5593.93
5560.3
5536.98
5531.33
5525.83
5521.16
5517.43
5514.64
5512.78
5511.86
6537.5
6537.15
6536.47
6535.5
6534.29
6532.91
6531.38
6529.75
6528.04
6526.27
6524.45
6522.6
6520.71
6518.78
6516.82
6514.82
6512.77
6510.68
6508.54
6506.35
6504.09
6501.77
6499.39
6496.94
6494.42
6491.83
6489.17
6486.45
6483.67
6480.84
6477.96
6475.03
6472.07
6469.06
6466.01
6462.93
6459.81
6456.67
6453.5
6450.31
6447.11
6443.91
6440.7
6437.5
6434.31
6431.13
6427.98
6424.84
6421.73
6418.64
6415.57
6412.53
6409.5
6406.49
6403.48
6400.47
6397.46
6394.44
6391.39
6388.32
6385.22
6382.08
6378.89
6375.65
6372.36
6369.02
6365.62
6362.17
6358.67
6355.13
6351.54
6347.91
6344.24
6340.54
6336.8
6333.02
6329.22
6325.38
6321.51
6317.61
6313.69
6309.75
6305.78
6301.79
6297.79
6293.76
6289.72
6285.66
6281.58
6277.47
6273.34
6269.18
6264.98
6260.75
6256.47
6252.15
6247.77
6243.34
6238.84
6234.27
6229.63
6224.9
6220.07
6215.15
6210.1
6204.92
6199.59
6194.09
6188.4
6182.47
6176.28
6169.81
6163.06
6156.05
6148.76
6141.11
6132.89
6123.67
6112.1
6093.23
6076.53
6061.32
6047.31
6034.44
6022.86
6012.97
6005.45
6001.85
5998
5988.6
5923.14
5835.06
5767.14
5714.93
5675
5646.03
5625.87
5610.98
5603.75
5579.25
5539.6
5511.33
5512.67
5511.19
5508.72
5506.05
5503.63
5501.7
5500.37
5499.69
6534.02
6533.73
6533.18
6532.39
6531.4
6530.23
6528.94
6527.53
6526.03
6524.47
6522.85
6521.17
6519.44
6517.67
6515.84
6513.97
6512.04
6510.05
6508
6505.89
6503.71
6501.45
6499.12
6496.7
6494.21
6491.64
6488.99
6486.28
6483.5
6480.66
6477.77
6474.83
6471.85
6468.83
6465.77
6462.66
6459.53
6456.36
6453.16
6449.95
6446.72
6443.48
6440.25
6437.03
6433.81
6430.62
6427.46
6424.32
6421.2
6418.13
6415.08
6412.05
6409.05
6406.07
6403.11
6400.14
6397.17
6394.19
6391.19
6388.16
6385.09
6381.98
6378.82
6375.61
6372.33
6369
6365.6
6362.15
6358.64
6355.08
6351.49
6347.85
6344.17
6340.46
6336.71
6332.93
6329.11
6325.26
6321.38
6317.48
6313.54
6309.59
6305.61
6301.63
6297.62
6293.6
6289.57
6285.53
6281.46
6277.38
6273.27
6269.14
6264.98
6260.78
6256.55
6252.27
6247.95
6243.58
6239.14
6234.65
6230.08
6225.44
6220.72
6215.9
6210.97
6205.92
6200.74
6195.4
6189.88
6184.15
6178.2
6172.07
6165.81
6159.44
6152.94
6146.31
6139.56
6132.87
6127.01
6109.49
6084.32
6064.1
6047.72
6034.3
6022.05
6011.24
6004.54
6003.06
6000.7
5963.56
5877.74
5794.49
5721.84
5661.08
5613.66
5582.35
5564.85
5553.19
5540.72
5515.05
5484.31
5481.36
5489.92
5492.05
5491.8
5490.67
5489.35
5488.16
5487.3
5486.84
6530.65
6530.43
6529.98
6529.34
6528.53
6527.56
6526.47
6525.27
6523.99
6522.62
6521.19
6519.69
6518.13
6516.51
6514.83
6513.09
6511.28
6509.41
6507.46
6505.43
6503.33
6501.14
6498.86
6496.48
6494.02
6491.47
6488.83
6486.11
6483.32
6480.47
6477.56
6474.61
6471.62
6468.58
6465.51
6462.38
6459.22
6456.02
6452.79
6449.54
6446.28
6443.01
6439.74
6436.49
6433.25
6430.04
6426.86
6423.71
6420.6
6417.53
6414.5
6411.51
6408.54
6405.61
6402.68
6399.77
6396.85
6393.92
6390.97
6387.99
6384.97
6381.9
6378.77
6375.58
6372.32
6368.99
6365.59
6362.13
6358.61
6355.04
6351.43
6347.78
6344.09
6340.37
6336.61
6332.82
6328.99
6325.13
6321.24
6317.32
6313.37
6309.4
6305.42
6301.43
6297.42
6293.41
6289.39
6285.36
6281.32
6277.26
6273.18
6269.08
6264.96
6260.8
6256.62
6252.39
6248.12
6243.81
6239.44
6235.02
6230.54
6225.99
6221.36
6216.65
6211.84
6206.92
6201.87
6196.68
6191.32
6185.79
6180.13
6174.42
6168.7
6162.98
6157.28
6151.63
6146.18
6141.25
6137.65
6130.32
6105.56
6076.51
6050.38
6029.94
6016.69
6009.39
6004.46
6002.07
5999.13
5928.63
5829.76
5743.34
5664.64
5593.91
5536.2
5504.84
5498.01
5496.22
5490.9
5475.89
5465.83
5470.69
5473.61
5475.29
5475.75
5475.5
5474.92
5474.3
5473.81
5473.54
6527.37
6527.19
6526.84
6526.32
6525.67
6524.88
6523.99
6522.99
6521.9
6520.73
6519.49
6518.17
6516.78
6515.33
6513.8
6512.19
6510.51
6508.76
6506.91
6504.98
6502.96
6500.84
6498.62
6496.29
6493.86
6491.32
6488.68
6485.95
6483.14
6480.27
6477.35
6474.38
6471.38
6468.33
6465.23
6462.09
6458.9
6455.67
6452.4
6449.1
6445.79
6442.48
6439.17
6435.88
6432.61
6429.38
6426.18
6423.02
6419.92
6416.86
6413.85
6410.89
6407.96
6405.07
6402.2
6399.35
6396.49
6393.62
6390.73
6387.81
6384.84
6381.82
6378.73
6375.57
6372.33
6369.01
6365.61
6362.13
6358.6
6355
6351.37
6347.7
6344
6340.27
6336.5
6332.7
6328.86
6324.99
6321.08
6317.14
6313.17
6309.19
6305.2
6301.19
6297.19
6293.18
6289.17
6285.16
6281.14
6277.11
6273.06
6269
6264.91
6260.8
6256.66
6252.49
6248.28
6244.03
6239.73
6235.39
6230.99
6226.52
6221.99
6217.38
6212.68
6207.88
6202.95
6197.88
6192.68
6187.38
6182.08
6176.83
6171.64
6166.54
6161.56
6156.77
6152.28
6148.3
6145.27
6142.34
6114.62
6076.89
6049.92
6025.49
6007.27
5992.57
5978.79
5962.43
5932.93
5854.2
5769.35
5684.46
5599.46
5513.7
5432.41
5402.81
5426.11
5442.77
5450.76
5448.67
5450.83
5457.15
5458.53
5459.75
5460.43
5460.64
5460.54
5460.32
5460.11
5459.98
6524.12
6523.98
6523.71
6523.32
6522.81
6522.2
6521.49
6520.68
6519.79
6518.82
6517.77
6516.63
6515.42
6514.13
6512.75
6511.29
6509.75
6508.12
6506.39
6504.56
6502.63
6500.58
6498.42
6496.14
6493.74
6491.21
6488.56
6485.81
6482.97
6480.07
6477.12
6474.14
6471.12
6468.06
6464.96
6461.8
6458.57
6455.3
6451.97
6448.62
6445.25
6441.89
6438.53
6435.2
6431.9
6428.63
6425.41
6422.24
6419.13
6416.08
6413.1
6410.18
6407.3
6404.47
6401.67
6398.88
6396.1
6393.31
6390.49
6387.63
6384.73
6381.76
6378.72
6375.6
6372.38
6369.07
6365.65
6362.15
6358.58
6354.96
6351.3
6347.61
6343.9
6340.16
6336.38
6332.57
6328.72
6324.83
6320.9
6316.94
6312.95
6308.95
6304.93
6300.92
6296.91
6292.9
6288.91
6284.91
6280.92
6276.92
6272.91
6268.88
6264.84
6260.77
6256.68
6252.56
6248.41
6244.23
6240
6235.73
6231.41
6227.03
6222.59
6218.07
6213.46
6208.75
6203.92
6198.97
6193.95
6188.95
6184.03
6179.21
6174.51
6169.97
6165.64
6161.6
6157.88
6154.38
6150.1
6148.98
6125.82
6083
6046.91
6014.84
5986.26
5959.23
5931.02
5897.62
5852.21
5785.91
5708.96
5625.68
5535.07
5429.02
5341.45
5323.9
5360.86
5397.99
5421.39
5431.29
5436.88
5442.47
5443.6
5444.75
5445.59
5446.07
5446.29
5446.33
5446.31
5446.28
6520.87
6520.78
6520.59
6520.31
6519.95
6519.5
6518.97
6518.36
6517.67
6516.89
6516.03
6515.08
6514.05
6512.93
6511.71
6510.4
6509
6507.5
6505.89
6504.17
6502.34
6500.38
6498.29
6496.06
6493.68
6491.16
6488.49
6485.69
6482.8
6479.85
6476.87
6473.87
6470.85
6467.8
6464.69
6461.5
6458.25
6454.92
6451.53
6448.11
6444.67
6441.24
6437.83
6434.45
6431.1
6427.79
6424.54
6421.35
6418.23
6415.2
6412.24
6409.37
6406.56
6403.8
6401.07
6398.37
6395.68
6392.97
6390.23
6387.46
6384.63
6381.74
6378.76
6375.68
6372.48
6369.17
6365.74
6362.2
6358.58
6354.91
6351.22
6347.51
6343.78
6340.04
6336.26
6332.44
6328.58
6324.67
6320.72
6316.72
6312.7
6308.66
6304.62
6300.59
6296.57
6292.57
6288.59
6284.62
6280.66
6276.69
6272.72
6268.73
6264.73
6260.71
6256.67
6252.61
6248.51
6244.39
6240.23
6236.03
6231.79
6227.49
6223.12
6218.68
6214.15
6209.51
6204.76
6199.95
6195.17
6190.49
6185.92
6181.49
6177.23
6173.19
6169.45
6166.09
6163.27
6161.24
6156.85
6154.35
6129.17
6082.37
6039.88
6000.71
5963.69
5927.06
5888.46
5844.81
5792.38
5728.27
5654.92
5574.22
5486.11
5387.97
5325.87
5317.95
5331.01
5366.94
5399.31
5416
5419.25
5427.04
5428.64
5430.05
5431.1
5431.79
5432.2
5432.42
5432.52
5432.56
6517.6
6517.54
6517.43
6517.27
6517.05
6516.77
6516.43
6516.01
6515.52
6514.95
6514.29
6513.54
6512.69
6511.74
6510.69
6509.54
6508.28
6506.91
6505.43
6503.83
6502.1
6500.24
6498.23
6496.06
6493.71
6491.19
6488.49
6485.62
6482.64
6479.61
6476.58
6473.57
6470.56
6467.53
6464.43
6461.24
6457.94
6454.55
6451.08
6447.56
6444.03
6440.51
6437.04
6433.61
6430.21
6426.85
6423.56
6420.34
6417.21
6414.18
6411.27
6408.45
6405.71
6403.04
6400.41
6397.81
6395.21
6392.61
6389.98
6387.3
6384.56
6381.75
6378.84
6375.82
6372.66
6369.35
6365.89
6362.29
6358.59
6354.85
6351.1
6347.37
6343.64
6339.9
6336.14
6332.32
6328.44
6324.51
6320.52
6316.49
6312.42
6308.34
6304.26
6300.2
6296.17
6292.18
6288.22
6284.28
6280.35
6276.42
6272.49
6268.55
6264.59
6260.62
6256.63
6252.61
6248.58
6244.52
6240.42
6236.29
6232.12
6227.88
6223.58
6219.2
6214.71
6210.12
6205.47
6200.87
6196.35
6191.96
6187.69
6183.6
6179.72
6176.12
6172.87
6170.06
6167.86
6166.48
6163.76
6159.2
6129.65
6077.44
6029.53
5984.43
5940.74
5896.87
5850.94
5800.78
5744.23
5679.88
5608.21
5530.19
5447.18
5362.63
5316.3
5311.71
5309.86
5339.46
5381.09
5402.63
5403.79
5410.71
5413.87
5415.73
5416.96
5417.78
5418.3
5418.62
5418.8
5418.87
6514.27
6514.25
6514.22
6514.17
6514.1
6514
6513.85
6513.65
6513.37
6513.01
6512.56
6512
6511.34
6510.57
6509.69
6508.7
6507.6
6506.37
6505.03
6503.55
6501.95
6500.19
6498.27
6496.17
6493.87
6491.35
6488.59
6485.59
6482.47
6479.31
6476.23
6473.22
6470.25
6467.27
6464.21
6461.03
6457.69
6454.2
6450.62
6446.97
6443.31
6439.71
6436.17
6432.68
6429.23
6425.81
6422.45
6419.18
6416.03
6413.02
6410.15
6407.4
6404.76
6402.19
6399.68
6397.2
6394.72
6392.23
6389.71
6387.15
6384.52
6381.82
6379
6376.06
6372.95
6369.65
6366.13
6362.42
6358.59
6354.74
6350.93
6347.18
6343.46
6339.76
6336.01
6332.2
6328.32
6324.36
6320.33
6316.24
6312.12
6307.97
6303.83
6299.73
6295.69
6291.71
6287.77
6283.87
6279.99
6276.1
6272.22
6268.32
6264.4
6260.48
6256.54
6252.58
6248.6
6244.6
6240.56
6236.49
6232.37
6228.19
6223.93
6219.58
6215.12
6210.61
6206.13
6201.74
6197.46
6193.29
6189.29
6185.5
6181.94
6178.7
6175.83
6173.43
6171.63
6170.57
6168.88
6162.1
6124.66
6068.2
6016.37
5966.75
5917.97
5868.74
5817.64
5763.15
5703.86
5638.83
5567.85
5491.15
5409.79
5334.9
5305.71
5305.38
5304.31
5326.23
5367.04
5389.31
5395.5
5398.14
5400.39
5402.05
5403.23
5404.06
5404.61
5404.97
5405.17
5405.26
6510.84
6510.86
6510.92
6511
6511.09
6511.18
6511.24
6511.26
6511.21
6511.08
6510.84
6510.5
6510.03
6509.45
6508.74
6507.91
6506.96
6505.89
6504.69
6503.35
6501.87
6500.24
6498.43
6496.42
6494.18
6491.68
6488.88
6485.64
6482.27
6478.87
6475.75
6472.77
6469.89
6467.03
6464.08
6460.93
6457.51
6453.91
6450.17
6446.34
6442.5
6438.78
6435.19
6431.67
6428.16
6424.67
6421.21
6417.86
6414.67
6411.67
6408.85
6406.2
6403.68
6401.25
6398.87
6396.53
6394.19
6391.84
6389.46
6387.02
6384.52
6381.94
6379.25
6376.42
6373.39
6370.11
6366.52
6362.62
6358.58
6354.54
6350.66
6346.9
6343.23
6339.6
6335.91
6332.12
6328.22
6324.23
6320.15
6315.99
6311.78
6307.54
6303.31
6299.16
6295.1
6291.14
6287.25
6283.4
6279.57
6275.74
6271.9
6268.05
6264.18
6260.29
6256.4
6252.49
6248.57
6244.62
6240.64
6236.62
6232.54
6228.39
6224.14
6219.8
6215.41
6211.06
6206.76
6202.55
6198.44
6194.48
6190.7
6187.14
6183.86
6180.9
6178.33
6176.22
6174.64
6173.73
6172.74
6154.08
6107.28
6054.32
6001
5948.22
5895.65
5842.48
5787.73
5730.31
5669.24
5603.72
5533.19
5456.79
5371.99
5310.89
5300.55
5300.03
5300.65
5315.37
5352.92
5377.35
5384.61
5385.95
5387.5
5388.83
5389.87
5390.62
5391.13
5391.46
5391.65
5391.74
6507.27
6507.35
6507.5
6507.71
6507.98
6508.28
6508.58
6508.85
6509.06
6509.17
6509.16
6509.03
6508.77
6508.37
6507.84
6507.18
6506.39
6505.47
6504.42
6503.23
6501.9
6500.4
6498.72
6496.82
6494.7
6492.24
6489.53
6485.78
6482.04
6478.11
6475.08
6472.17
6469.47
6466.83
6464.08
6461.03
6457.48
6453.71
6449.77
6445.67
6441.5
6437.69
6434.11
6430.58
6427.03
6423.43
6419.83
6416.33
6413.06
6410.08
6407.35
6404.83
6402.46
6400.2
6397.99
6395.82
6393.64
6391.44
6389.2
6386.91
6384.56
6382.13
6379.6
6376.92
6374.04
6370.83
6367.17
6362.91
6358.51
6354.15
6350.2
6346.47
6342.92
6339.44
6335.86
6332.09
6328.16
6324.13
6319.99
6315.75
6311.43
6307.04
6302.66
6298.44
6294.37
6290.45
6286.63
6282.86
6279.1
6275.34
6271.55
6267.73
6263.9
6260.06
6256.2
6252.34
6248.47
6244.57
6240.63
6236.64
6232.58
6228.43
6224.21
6219.95
6215.71
6211.5
6207.34
6203.25
6199.28
6195.48
6191.87
6188.52
6185.45
6182.72
6180.37
6178.46
6177
6176.05
6175.22
6149.26
6096.08
6040.81
5985.08
5929.49
5873.91
5817.82
5760.48
5701.13
5639.05
5573.63
5504.42
5430.82
5351.54
5303.26
5297.34
5296.76
5297.98
5312.49
5344.84
5365.36
5372.49
5373.57
5374.82
5375.92
5376.78
5377.41
5377.83
5378.09
5378.24
5378.31
6503.53
6503.66
6503.91
6504.27
6504.74
6505.29
6505.87
6506.43
6506.92
6507.29
6507.53
6507.62
6507.56
6507.35
6507
6506.51
6505.88
6505.12
6504.22
6503.19
6502.02
6500.7
6499.16
6497.39
6495.48
6493
6491.15
6487.03
6480.88
6476.4
6474.22
6471.31
6468.93
6466.69
6464.35
6461.58
6457.63
6453.63
6449.47
6445.01
6440.08
6436.31
6432.9
6429.48
6425.91
6422.16
6418.29
6414.5
6411.13
6408.2
6405.6
6403.26
6401.1
6399.04
6397.04
6395.06
6393.06
6391.03
6388.95
6386.82
6384.63
6382.37
6380.04
6377.59
6374.95
6371.97
6368.35
6363.28
6358.36
6353.3
6349.46
6345.82
6342.5
6339.3
6335.95
6332.15
6328.16
6324.07
6319.87
6315.55
6311.08
6306.46
6301.79
6297.51
6293.45
6289.61
6285.91
6282.25
6278.59
6274.9
6271.16
6267.38
6263.58
6259.76
6255.94
6252.12
6248.29
6244.43
6240.52
6236.54
6232.48
6228.37
6224.25
6220.13
6216.01
6211.91
6207.84
6203.84
6199.97
6196.27
6192.8
6189.6
6186.7
6184.15
6181.99
6180.24
6178.85
6177.49
6176.68
6146.37
6086.96
6027.77
5969.02
5910.75
5852.7
5794.39
5735.25
5674.7
5612.19
5547.34
5480.03
5410.54
5339.75
5300.33
5296.13
5296.29
5297.35
5301.39
5328.28
5351.53
5359.62
5361.02
5362.28
5363.25
5363.94
5364.4
5364.68
5364.84
5364.92
5364.95
6499.57
6499.75
6500.1
6500.64
6501.34
6502.18
6503.09
6503.99
6504.81
6505.47
6505.97
6506.3
6506.44
6506.42
6506.24
6505.91
6505.44
6504.84
6504.1
6503.24
6502.25
6501.12
6499.78
6498.02
6496.75
6494.94
6491.88
6485.69
6479.5
6475.49
6472.46
6469.86
6468.2
6466.59
6465
6463.26
6460.28
6454.61
6448.02
6442.06
6437.45
6434.51
6431.65
6428.47
6424.9
6420.94
6416.63
6412.21
6408.72
6405.91
6403.56
6401.48
6399.58
6397.78
6396.02
6394.26
6392.47
6390.63
6388.72
6386.75
6384.72
6382.65
6380.55
6378.4
6376.16
6373.69
6370.9
6365.42
6357.29
6351.19
6348.45
6344.78
6341.89
6339.26
6336.42
6332.34
6328.2
6324.04
6319.8
6315.41
6310.81
6305.88
6300.47
6296.29
6292.23
6288.57
6285.08
6281.6
6278.06
6274.45
6270.76
6267
6263.2
6259.38
6255.59
6251.81
6248.01
6244.17
6240.27
6236.32
6232.34
6228.35
6224.34
6220.33
6216.31
6212.28
6208.26
6204.31
6200.48
6196.84
6193.46
6190.38
6187.61
6185.19
6183.18
6181.65
6180.68
6179.13
6177.42
6142.98
6077.62
6014.28
5952.49
5891.8
5831.73
5771.78
5711.44
5650.21
5587.67
5523.52
5457.8
5391.58
5329.4
5298.91
5295.82
5295.88
5296.54
5299.18
5321.14
5340.23
5346.05
5348.61
5350.02
5350.85
5351.33
5351.57
5351.66
5351.66
5351.64
5351.62
6495.34
6495.57
6496.03
6496.75
6497.72
6498.91
6500.25
6501.57
6502.76
6503.75
6504.53
6505.08
6505.42
6505.57
6505.56
6505.39
6505.07
6504.63
6504.06
6503.37
6502.55
6501.68
6500.72
6499.43
6497.4
6491.92
6486.18
6480.2
6475.9
6472.68
6470.55
6468.78
6467.37
6466.42
6465.75
6464.63
6460.1
6452.64
6445.31
6439.12
6435.31
6432.58
6430.66
6427.79
6424.23
6420.01
6415.03
6408.93
6405.55
6403.14
6401.18
6399.47
6397.91
6396.43
6394.96
6393.46
6391.9
6390.25
6388.5
6386.68
6384.81
6382.92
6381.06
6379.27
6377.54
6375.65
6373.63
6364.55
6354.29
6348.91
6346.11
6342.9
6340.96
6339.36
6338.04
6335.05
6328.68
6323.16
6320.29
6315.13
6308.12
6302.25
6297.83
6294.85
6290.53
6287.29
6284.16
6280.93
6277.54
6274.01
6270.35
6266.58
6262.74
6258.89
6255.11
6251.37
6247.62
6243.83
6240
6236.14
6232.26
6228.36
6224.46
6220.55
6216.62
6212.65
6208.63
6204.65
6200.8
6197.15
6193.84
6190.84
6188.16
6185.82
6183.91
6182.5
6181.69
6180.52
6177.58
6137.45
6066.25
5999.22
5934.87
5872.24
5810.65
5749.56
5688.51
5627.05
5564.76
5501.25
5436.09
5368.57
5314.36
5296.44
5295.43
5295.47
5295.48
5297.36
5316.86
5333.59
5335.72
5337.35
5338.34
5338.82
5338.96
5338.89
5338.72
5338.52
5338.35
5338.26
6490.79
6491.06
6491.62
6492.51
6493.78
6495.42
6497.33
6499.2
6500.84
6502.18
6503.23
6504
6504.52
6504.84
6504.97
6504.95
6504.78
6504.49
6504.08
6503.55
6502.82
6502.26
6501.22
6495.53
6489.38
6481.86
6476.29
6471.85
6468.78
6467.07
6466.91
6467.62
6466.6
6465.93
6465.8
6464.76
6458.65
6448.88
6440.53
6433.84
6429.24
6428.37
6428.65
6426.93
6422.76
6416.24
6408.7
6402.86
6401.36
6399.86
6398.5
6397.27
6396.13
6395.01
6393.88
6392.68
6391.37
6389.92
6388.32
6386.62
6384.87
6383.11
6381.45
6380.01
6379.01
6377.75
6371.34
6358.08
6347.27
6340.87
6338.05
6338.36
6339.64
6339.1
6338.4
6334.48
6326.31
6317.63
6312.83
6309.03
6303.8
6299.24
6294.59
6290.81
6287.65
6285.83
6283.29
6280.33
6277.09
6273.62
6269.97
6266.16
6262.21
6258.22
6254.5
6250.87
6247.22
6243.53
6239.8
6236.01
6232.21
6228.39
6224.58
6220.78
6216.97
6213.08
6208.95
6204.86
6200.9
6197.14
6193.89
6190.99
6188.36
6186.03
6184.13
6182.75
6181.97
6180.92
6176.53
6126.46
6050.73
5981.49
5915.53
5851.62
5789.05
5727.32
5665.99
5604.7
5543.07
5480.65
5416.73
5349.85
5304.73
5295.46
5294.97
5295.08
5295.23
5296.28
5310.6
5324.94
5325.9
5326.75
5327.15
5327.13
5326.8
5326.32
5325.8
5325.34
5325
5324.82
6485.89
6486.18
6486.79
6487.82
6489.38
6491.59
6494.36
6496.99
6499.15
6500.84
6502.13
6503.09
6503.78
6504.23
6504.49
6504.59
6504.55
6504.4
6504.16
6503.85
6503.26
6501.4
6493.92
6483.47
6476.03
6469.87
6465.29
6462.11
6460.32
6459.89
6461.01
6464
6465.36
6465.48
6464.53
6463.17
6455.39
6443.68
6434.11
6425.69
6420.89
6423.4
6424.44
6421.14
6412.39
6403.52
6399.9
6397.74
6397.12
6396.38
6395.65
6394.95
6394.27
6393.57
6392.82
6391.96
6390.93
6389.7
6388.21
6386.57
6384.88
6383.17
6381.56
6380.28
6379.47
6378.58
6368.03
6349.94
6335.29
6324.84
6318.83
6319.08
6326.87
6334.12
6334.51
6326.97
6315.45
6305.83
6301.9
6299.87
6296.39
6293.59
6290.38
6287.81
6286.39
6285
6282.75
6279.96
6276.78
6273.34
6269.68
6265.81
6261.69
6257.25
6253.79
6250.39
6246.91
6243.32
6239.65
6235.92
6232.17
6228.42
6224.69
6221.02
6217.41
6213.75
6209.21
6204.96
6200.81
6196.61
6193.6
6190.86
6188.25
6185.81
6183.85
6182.38
6181.56
6180.6
6159
6097.53
6028.7
5960.47
5894.15
5829.66
5766.63
5704.66
5643.44
5582.69
5522.17
5461.55
5400.32
5337.53
5299.56
5294.18
5294.38
5294.65
5295.03
5296.89
5304.76
5315.35
5316.2
5316.58
5316.39
5315.74
5314.81
5313.78
5312.82
5312.04
5311.48
5311.2
6480.62
6480.88
6481.46
6482.5
6484.26
6487.13
6491.43
6495.17
6497.86
6499.83
6501.31
6502.41
6503.2
6503.75
6504.11
6504.31
6504.39
6504.35
6504.25
6503.42
6496.88
6488.9
6477.86
6468.42
6461.4
6456.3
6452.88
6450.97
6450.49
6451.17
6453.22
6457.54
6462.42
6460.29
6460.19
6460.1
6449.31
6436.35
6426.54
6418.57
6415.46
6419.45
6420.77
6412.65
6400.36
6392.24
6392.98
6393.02
6392.97
6392.86
6392.72
6392.56
6392.37
6392.15
6391.84
6391.37
6390.66
6389.68
6388.18
6386.55
6384.85
6383.09
6381.29
6380.01
6379.07
6377.58
6362.58
6338.36
6319.11
6304.37
6293.17
6288.37
6293.53
6296.93
6311.53
6312.71
6304.43
6299.54
6297.44
6295.04
6292.47
6290.93
6289.04
6287.39
6286.35
6284.15
6281.82
6279.26
6275.85
6272.29
6268.92
6264.9
6259.65
6255.3
6253.03
6250.04
6246.71
6243.19
6239.56
6235.86
6232.12
6228.42
6224.75
6221.2
6217.92
6215.28
6208.9
6205.04
6199.42
6194.88
6193.03
6190.62
6187.98
6185.11
6183.08
6181.37
6180.41
6178.98
6145.01
6075.96
6006.08
5937.53
5870.95
5806.26
5743.13
5681.26
5620.42
5560.47
5501.36
5443.07
5385.46
5327.92
5295.8
5292.92
5293.52
5294.13
5295.04
5296.78
5299.79
5305.28
5306.95
5306.99
5306.09
5304.63
5302.9
5301.19
5299.68
5298.5
5297.69
5297.29
6474.99
6475.17
6475.59
6476.39
6477.92
6481.12
6488.98
6494.33
6497.22
6499.25
6500.79
6501.96
6502.79
6503.41
6503.83
6504.09
6504.27
6504.31
6498.43
6491.31
6480.29
6470.45
6460.21
6450.96
6444.84
6441.06
6438.96
6438.4
6439.52
6441.09
6443.17
6446
6449.77
6447.4
6447.92
6446.86
6436.06
6425.89
6417.11
6409.63
6406.45
6408.24
6408.03
6401.16
6392.08
6386.72
6386.61
6388.32
6388.82
6389.32
6389.76
6390.14
6390.48
6390.76
6390.96
6390.98
6390.6
6390.12
6388.66
6386.34
6384.25
6382.18
6380.43
6379.34
6377.73
6373.69
6352.61
6321.8
6298.42
6280.36
6265.7
6259
6259.3
6253.1
6279.23
6304.7
6299.84
6297.54
6297.37
6294.76
6291.99
6290.13
6288.73
6287.73
6277.57
6268.98
6264.23
6260.38
6256.64
6253.11
6249.68
6245.89
6241.72
6238.14
6235.57
6232.97
6230.43
6228.4