/*--------------------------------*- C++ -*----------------------------------*\
| =========                 |                                                 |
| \\      /  F ield         | OpenFOAM: The Open Source CFD Toolbox           |
|  \\    /   O peration     | Version:  2.1.0                                 |
|   \\  /    A nd           | Web:      www.OpenFOAM.org                      |
|    \\/     M anipulation  |                                                 |
\*---------------------------------------------------------------------------*/
FoamFile
{
    version     2.0;
    format      ascii;
    class       volScalarField;
    location    "28105";
    object      so;
}
// * * * * * * * * * * * * * * * * * * * * * * * * * * * * * * * * * * * * * //

dimensions      [0 0 0 0 0 0 0];

internalField   nonuniform List<scalar> 
15000
(
0.2
0.200002
0.200074
0.20119
0.205918
0.215389
0.228038
0.241898
0.255801
0.269224
0.281973
0.293997
0.305305
0.315927
0.325903
0.335272
0.344076
0.352354
0.360142
0.367478
0.374395
0.380927
0.387103
0.392954
0.398508
0.403792
0.408834
0.413657
0.41828
0.42272
0.426994
0.431115
0.435097
0.438951
0.442689
0.446319
0.449853
0.453297
0.456659
0.459948
0.46317
0.466331
0.469436
0.47249
0.475498
0.478464
0.48139
0.48428
0.487136
0.489958
0.492749
0.495508
0.498237
0.500934
0.503599
0.506232
0.508831
0.511396
0.513926
0.51642
0.518878
0.521299
0.523684
0.526032
0.528344
0.530622
0.532866
0.535078
0.537259
0.539412
0.541538
0.543639
0.545717
0.547773
0.54981
0.55183
0.553835
0.555827
0.557807
0.559777
0.561739
0.563696
0.565648
0.567598
0.569548
0.571497
0.573449
0.575404
0.577363
0.579328
0.5813
0.583281
0.585272
0.587275
0.589291
0.591321
0.593366
0.59543
0.597514
0.599619
0.601747
0.603902
0.606087
0.608306
0.610564
0.612867
0.615221
0.617637
0.620123
0.622694
0.625363
0.628152
0.631082
0.63418
0.637477
0.641004
0.644796
0.648894
0.653355
0.658273
0.663812
0.670241
0.677987
0.687676
0.700144
0.716228
0.735858
0.756649
0.77434
0.786257
0.793001
0.796476
0.798211
0.799082
0.799523
0.799751
0.79987
0.799932
0.799965
0.799982
0.799991
0.799996
0.799998
0.799999
0.8
0.8
0.8
0.8
0.8
0.8
0.200002
0.200009
0.200345
0.20263
0.209075
0.219637
0.232535
0.24619
0.259733
0.272781
0.285188
0.296916
0.307971
0.318381
0.328178
0.337396
0.346072
0.35424
0.361936
0.369192
0.376041
0.382512
0.388635
0.394439
0.399951
0.405198
0.410208
0.415
0.419596
0.42401
0.42826
0.432357
0.436316
0.440147
0.443862
0.447471
0.450982
0.454404
0.457745
0.461013
0.464213
0.467353
0.470437
0.47347
0.476459
0.479406
0.482314
0.485187
0.488026
0.490833
0.49361
0.496358
0.499075
0.501763
0.50442
0.507046
0.50964
0.512201
0.514728
0.51722
0.519677
0.522097
0.524482
0.526831
0.529144
0.531424
0.53367
0.535885
0.53807
0.540226
0.542355
0.544459
0.54654
0.5486
0.550641
0.552666
0.554675
0.556672
0.558657
0.560633
0.562602
0.564567
0.566529
0.56849
0.570451
0.572414
0.57438
0.576353
0.578332
0.58032
0.582318
0.584328
0.586353
0.588394
0.590453
0.592533
0.594636
0.596764
0.598921
0.60111
0.603335
0.605602
0.607917
0.610288
0.612724
0.615238
0.617846
0.620565
0.623421
0.626445
0.629678
0.633171
0.636985
0.641192
0.645865
0.651074
0.656879
0.663336
0.670535
0.678666
0.68811
0.699518
0.71377
0.731431
0.751335
0.769847
0.783385
0.79142
0.795616
0.797707
0.798768
0.799322
0.79962
0.799781
0.799872
0.799925
0.799956
0.799975
0.799986
0.799992
0.799996
0.799998
0.799999
0.799999
0.8
0.8
0.8
0.8
0.8
0.8
0.200071
0.200338
0.201766
0.20623
0.214642
0.226015
0.238828
0.252009
0.264987
0.2775
0.289438
0.300767
0.311488
0.321617
0.331178
0.340197
0.348704
0.356729
0.364301
0.37145
0.378205
0.384592
0.390641
0.396379
0.401832
0.407027
0.411988
0.416737
0.42129
0.425664
0.429874
0.433933
0.437854
0.441649
0.445327
0.4489
0.452376
0.455763
0.459069
0.462303
0.465469
0.468575
0.471627
0.474629
0.477588
0.480506
0.483388
0.486235
0.489051
0.491838
0.494596
0.497327
0.500031
0.502707
0.505354
0.507972
0.510559
0.513115
0.515639
0.518129
0.520584
0.523004
0.525388
0.527737
0.530052
0.532332
0.534579
0.536794
0.538979
0.541136
0.543266
0.545371
0.547452
0.549514
0.551557
0.553583
0.555595
0.557594
0.559583
0.561563
0.563537
0.565507
0.567476
0.569445
0.571415
0.57339
0.57537
0.577358
0.579356
0.581365
0.583388
0.585427
0.587486
0.589565
0.591668
0.593799
0.59596
0.598155
0.600389
0.602667
0.604996
0.607384
0.609842
0.612382
0.615022
0.617782
0.620691
0.623785
0.627116
0.630748
0.63477
0.639295
0.644457
0.650407
0.65729
0.665218
0.674259
0.684461
0.695939
0.709011
0.724226
0.741779
0.760198
0.776195
0.787288
0.793662
0.796916
0.798482
0.799218
0.799567
0.79975
0.799852
0.799911
0.799944
0.799964
0.799977
0.799985
0.799991
0.799995
0.799997
0.799998
0.799999
0.799999
0.8
0.8
0.8
0.8
0.8
0.8
0.8
0.201136
0.202547
0.206141
0.212925
0.222629
0.234163
0.246506
0.258999
0.271277
0.283156
0.294546
0.305412
0.315743
0.325544
0.334828
0.343613
0.351921
0.359774
0.367198
0.374218
0.380858
0.387144
0.393102
0.398758
0.404138
0.409267
0.414166
0.418856
0.423352
0.427672
0.431829
0.435836
0.439706
0.443451
0.447081
0.450605
0.454032
0.457372
0.460631
0.463817
0.466937
0.469998
0.473007
0.475968
0.478887
0.481767
0.484613
0.487428
0.490214
0.492974
0.495709
0.498419
0.501105
0.503766
0.506401
0.50901
0.51159
0.514141
0.51666
0.519147
0.521601
0.52402
0.526404
0.528753
0.531067
0.533347
0.535593
0.537808
0.539992
0.542148
0.544277
0.54638
0.548461
0.550522
0.552564
0.55459
0.556601
0.558601
0.56059
0.562572
0.564548
0.566522
0.568496
0.57047
0.572449
0.574433
0.576425
0.578428
0.580443
0.582474
0.584522
0.58659
0.588682
0.590801
0.592949
0.595132
0.597354
0.59962
0.601937
0.604312
0.606755
0.609278
0.611896
0.614632
0.617511
0.62057
0.623856
0.627438
0.631409
0.635895
0.641066
0.64714
0.654369
0.663013
0.673286
0.685295
0.699003
0.714258
0.730844
0.748271
0.765114
0.77906
0.788649
0.794271
0.797232
0.798695
0.79939
0.799711
0.799855
0.799914
0.799947
0.799967
0.799979
0.799986
0.79999
0.799993
0.799995
0.799997
0.799998
0.799999
0.799999
0.799999
0.8
0.8
0.8
0.8
0.8
0.8
0.8
0.8
0.205633
0.208746
0.214316
0.222408
0.232408
0.243528
0.255137
0.266823
0.278338
0.289539
0.300346
0.310715
0.320627
0.330072
0.339055
0.347583
0.35567
0.363334
0.370592
0.377466
0.383976
0.390147
0.396002
0.401565
0.40686
0.41191
0.416735
0.421354
0.425781
0.430033
0.434124
0.438067
0.441874
0.445557
0.449124
0.452587
0.455954
0.459233
0.462432
0.465559
0.468621
0.471626
0.47458
0.477488
0.480357
0.48319
0.485991
0.488765
0.491514
0.494241
0.496947
0.499633
0.502298
0.504942
0.507563
0.51016
0.512732
0.515277
0.517792
0.520277
0.52273
0.525148
0.527532
0.529881
0.532195
0.534474
0.536719
0.538932
0.541114
0.543267
0.545393
0.547493
0.549571
0.551629
0.553668
0.555691
0.5577
0.559697
0.561685
0.563666
0.565643
0.567618
0.569594
0.571572
0.573556
0.575548
0.577551
0.579568
0.5816
0.583652
0.585725
0.587823
0.589949
0.592108
0.594304
0.596543
0.598831
0.601173
0.60358
0.606062
0.608631
0.611307
0.614113
0.61708
0.62025
0.623682
0.627457
0.631692
0.636549
0.642257
0.649115
0.657494
0.667797
0.680375
0.695393
0.712661
0.731469
0.750412
0.767387
0.780482
0.789208
0.794368
0.79718
0.798634
0.799359
0.799709
0.799873
0.799946
0.799976
0.799984
0.799989
0.799993
0.799995
0.799997
0.799998
0.799998
0.799998
0.799999
0.799999
0.799999
0.8
0.8
0.8
0.8
0.8
0.8
0.8
0.8
0.8
0.8
0.214649
0.218883
0.22531
0.233599
0.243203
0.253589
0.264349
0.275197
0.285945
0.296468
0.30669
0.316558
0.326041
0.335121
0.343791
0.35205
0.359907
0.367369
0.374451
0.381169
0.387542
0.393589
0.399332
0.404793
0.409995
0.414957
0.419697
0.424232
0.428579
0.432752
0.436765
0.440631
0.444363
0.447971
0.451465
0.454854
0.458148
0.461354
0.464481
0.467536
0.470528
0.473464
0.476351
0.479195
0.482002
0.484777
0.487525
0.49025
0.492955
0.495642
0.498314
0.50097
0.50361
0.506234
0.508839
0.511424
0.513987
0.516526
0.519038
0.521522
0.523974
0.526393
0.528777
0.531127
0.53344
0.535719
0.537962
0.540173
0.542351
0.5445
0.546621
0.548717
0.550789
0.552842
0.554876
0.556894
0.558899
0.560892
0.562875
0.564853
0.566827
0.568801
0.570777
0.572757
0.574745
0.576743
0.578756
0.580785
0.582835
0.584907
0.587006
0.589132
0.591294
0.593496
0.595743
0.598042
0.6004
0.602827
0.605333
0.607934
0.610649
0.613502
0.616529
0.619777
0.623309
0.627219
0.631641
0.636767
0.642872
0.650334
0.65964
0.671344
0.685954
0.703694
0.724123
0.745638
0.765298
0.780142
0.789409
0.794489
0.79717
0.798568
0.799291
0.799659
0.799843
0.799932
0.799973
0.799991
0.799995
0.799999
0.8
0.8
0.8
0.8
0.8
0.799999
0.799999
0.8
0.8
0.8
0.8
0.8
0.8
0.8
0.8
0.8
0.8
0.8
0.8
0.8
0.226694
0.231232
0.237633
0.2455
0.2544
0.263953
0.27386
0.283901
0.293917
0.303795
0.313454
0.322835
0.331899
0.340618
0.348976
0.356967
0.36459
0.371849
0.378752
0.385312
0.391543
0.397463
0.40309
0.408445
0.413547
0.418412
0.423058
0.427501
0.431756
0.435838
0.439762
0.44354
0.447185
0.450706
0.454115
0.457419
0.460627
0.463748
0.466789
0.469761
0.472669
0.475523
0.47833
0.481098
0.483831
0.486538
0.489221
0.491887
0.49454
0.49718
0.499811
0.502432
0.505044
0.507645
0.510232
0.512805
0.515359
0.517892
0.520402
0.522885
0.525338
0.527759
0.530146
0.532497
0.534812
0.53709
0.539332
0.541538
0.543712
0.545855
0.54797
0.550059
0.552125
0.55417
0.556198
0.558209
0.560207
0.562193
0.56417
0.566142
0.568111
0.570081
0.572054
0.574034
0.576023
0.578027
0.580047
0.582089
0.584155
0.586247
0.588371
0.59053
0.592729
0.594976
0.597277
0.599641
0.602076
0.604596
0.607214
0.60995
0.612832
0.615896
0.619189
0.622782
0.626775
0.631312
0.636604
0.642965
0.650833
0.660795
0.673556
0.68979
0.709784
0.732758
0.755997
0.775199
0.787653
0.794232
0.797296
0.79865
0.799307
0.799646
0.799823
0.799914
0.799961
0.799984
0.799994
0.799998
0.8
0.8
0.8
0.8
0.8
0.8
0.8
0.8
0.8
0.8
0.8
0.8
0.8
0.8
0.8
0.8
0.8
0.8
0.8
0.8
0.8
0.8
0.239865
0.244254
0.250239
0.257471
0.265606
0.27435
0.283466
0.292769
0.302116
0.311399
0.320535
0.32946
0.338127
0.346501
0.354561
0.362293
0.369689
0.376749
0.383478
0.389882
0.395975
0.40177
0.407283
0.412531
0.417529
0.422292
0.426836
0.431176
0.435329
0.43931
0.443133
0.446812
0.450358
0.453782
0.457094
0.460301
0.463412
0.466435
0.469378
0.472251
0.475062
0.47782
0.480533
0.48321
0.485857
0.488482
0.49109
0.493686
0.496275
0.49886
0.501443
0.504025
0.506603
0.509178
0.511746
0.514304
0.51685
0.51938
0.52189
0.524374
0.526831
0.529257
0.531649
0.534004
0.53632
0.538598
0.540838
0.543041
0.545209
0.547346
0.549453
0.551534
0.553591
0.555628
0.557646
0.559648
0.561636
0.563613
0.565582
0.567545
0.569507
0.57147
0.573437
0.575413
0.577403
0.579409
0.581436
0.583488
0.585568
0.587681
0.589832
0.592025
0.594263
0.596558
0.598919
0.601354
0.603876
0.606499
0.609244
0.612137
0.615216
0.61853
0.622151
0.62618
0.630769
0.63614
0.642627
0.650711
0.661062
0.674515
0.691919
0.713654
0.738599
0.762884
0.78123
0.791746
0.796638
0.798657
0.79944
0.799713
0.799846
0.799919
0.799958
0.799979
0.79999
0.799996
0.799999
0.8
0.8
0.8
0.8
0.8
0.8
0.8
0.8
0.8
0.8
0.8
0.8
0.8
0.8
0.8
0.8
0.8
0.8
0.8
0.8
0.8
0.8
0.8
0.253014
0.257093
0.262572
0.269162
0.276588
0.28461
0.293028
0.30168
0.310436
0.319188
0.327853
0.336364
0.344667
0.352723
0.360506
0.367996
0.37518
0.382055
0.38862
0.39488
0.400844
0.406523
0.411929
0.417073
0.421967
0.426625
0.43106
0.435289
0.439329
0.443196
0.446907
0.450475
0.453912
0.457228
0.460432
0.463531
0.466533
0.469445
0.472276
0.475035
0.477732
0.480378
0.482981
0.485551
0.488097
0.490625
0.493143
0.495656
0.498171
0.50069
0.503217
0.505751
0.508291
0.510837
0.513383
0.515929
0.518468
0.520995
0.523507
0.525997
0.528461
0.530896
0.533296
0.535657
0.537979
0.540259
0.542497
0.544697
0.546859
0.548987
0.551085
0.553156
0.555203
0.557229
0.559237
0.561228
0.563205
0.565171
0.567129
0.569081
0.571031
0.572983
0.574941
0.576911
0.578897
0.580903
0.582935
0.584996
0.587091
0.589224
0.591403
0.593631
0.595914
0.598262
0.600687
0.6032
0.605817
0.608557
0.611448
0.614526
0.617841
0.621462
0.625493
0.630085
0.635464
0.64197
0.650111
0.66061
0.674417
0.692554
0.71555
0.742031
0.767085
0.784721
0.793911
0.797784
0.799235
0.799745
0.799918
0.799951
0.799972
0.799984
0.799991
0.799996
0.799998
0.799999
0.8
0.8
0.8
0.8
0.8
0.8
0.8
0.8
0.8
0.8
0.8
0.8
0.8
0.8
0.8
0.8
0.8
0.8
0.8
0.8
0.8
0.8
0.8
0.8
0.265618
0.26937
0.274376
0.2804
0.287217
0.294625
0.302452
0.310551
0.318799
0.327093
0.335348
0.343494
0.351475
0.35925
0.366785
0.374057
0.381052
0.387762
0.394182
0.400317
0.40617
0.411749
0.41706
0.422108
0.426903
0.431454
0.435776
0.439886
0.443801
0.447543
0.451128
0.454573
0.45789
0.461088
0.464174
0.467154
0.470034
0.472821
0.475523
0.478152
0.480718
0.483232
0.485707
0.488151
0.490575
0.492989
0.495399
0.497814
0.500239
0.50268
0.50514
0.507619
0.510115
0.512627
0.515152
0.517683
0.520217
0.522745
0.525263
0.527763
0.530241
0.532689
0.535103
0.537476
0.539807
0.542092
0.544331
0.546527
0.548683
0.550802
0.552889
0.554948
0.556983
0.558998
0.560993
0.562972
0.564937
0.56689
0.568833
0.57077
0.572705
0.574642
0.576588
0.578548
0.580527
0.582531
0.584564
0.586632
0.58874
0.590895
0.593103
0.595369
0.597703
0.600106
0.602601
0.605201
0.607926
0.610802
0.613864
0.617162
0.620763
0.62477
0.629328
0.634663
0.641112
0.649189
0.659648
0.673522
0.692007
0.715837
0.743546
0.769359
0.786653
0.795056
0.798341
0.79948
0.799847
0.799959
0.799991
0.799999
0.8
0.8
0.8
0.8
0.8
0.8
0.8
0.8
0.8
0.8
0.8
0.8
0.8
0.8
0.8
0.8
0.8
0.8
0.8
0.8
0.8
0.8
0.8
0.8
0.8
0.8
0.8
0.8
0.8
0.8
0.277479
0.280939
0.285545
0.291103
0.297424
0.304334
0.311679
0.319325
0.327155
0.335068
0.342979
0.350817
0.358526
0.366059
0.373382
0.38047
0.387306
0.393879
0.400184
0.406222
0.411992
0.417495
0.42273
0.427697
0.432402
0.436852
0.441058
0.445039
0.448817
0.452418
0.455863
0.459171
0.462356
0.465425
0.468384
0.471234
0.473979
0.476625
0.479181
0.481659
0.484072
0.486432
0.488754
0.491049
0.493329
0.495605
0.497886
0.500181
0.502499
0.504846
0.507225
0.509638
0.512083
0.514558
0.517059
0.519577
0.522107
0.52464
0.527169
0.529687
0.532185
0.534655
0.537091
0.539484
0.54184
0.544151
0.546407
0.548605
0.550756
0.552866
0.554941
0.556988
0.55901
0.561011
0.562992
0.564957
0.566906
0.568841
0.570764
0.572679
0.574591
0.576507
0.578432
0.580373
0.582337
0.58433
0.586359
0.58843
0.59055
0.592724
0.594961
0.597266
0.59965
0.602119
0.604692
0.607391
0.61024
0.613274
0.616542
0.620108
0.62407
0.628573
0.63383
0.640172
0.648105
0.658392
0.672123
0.690644
0.714943
0.743637
0.7703
0.787636
0.795658
0.798625
0.799595
0.799889
0.799972
0.799994
0.799999
0.8
0.8
0.8
0.8
0.8
0.8
0.8
0.8
0.8
0.8
0.8
0.8
0.8
0.8
0.8
0.8
0.8
0.8
0.8
0.8
0.8
0.8
0.8
0.8
0.8
0.8
0.8
0.8
0.8
0.8
0.8
0.288541
0.291759
0.296048
0.301243
0.307179
0.313703
0.320676
0.327969
0.335472
0.343086
0.350724
0.358317
0.365807
0.373147
0.380301
0.387244
0.393958
0.400433
0.406663
0.412644
0.418369
0.42383
0.429021
0.433936
0.438572
0.44293
0.447021
0.450865
0.454489
0.457927
0.461211
0.464365
0.467404
0.470334
0.473156
0.475866
0.478464
0.480953
0.483341
0.485643
0.487873
0.49005
0.492189
0.494305
0.496411
0.49852
0.500643
0.502792
0.504977
0.507209
0.50949
0.511824
0.514209
0.516641
0.519114
0.52162
0.524149
0.526693
0.529241
0.531785
0.534314
0.536818
0.539288
0.541738
0.544144
0.546491
0.548772
0.550984
0.553126
0.555221
0.55728
0.559311
0.561318
0.563306
0.565275
0.567227
0.56916
0.571077
0.572979
0.57487
0.576755
0.578641
0.580537
0.582451
0.584391
0.586367
0.588384
0.590453
0.592579
0.59477
0.597032
0.599377
0.601815
0.604359
0.607015
0.609823
0.612818
0.616042
0.619561
0.623467
0.627897
0.633057
0.639265
0.647013
0.657058
0.670518
0.68886
0.713344
0.742818
0.770398
0.788055
0.795962
0.798773
0.799654
0.799909
0.799978
0.799995
0.799999
0.8
0.8
0.8
0.8
0.8
0.8
0.8
0.8
0.8
0.8
0.8
0.8
0.8
0.8
0.8
0.8
0.8
0.8
0.8
0.8
0.8
0.8
0.8
0.8
0.8
0.8
0.8
0.8
0.8
0.8
0.8
0.8
0.298803
0.301834
0.305887
0.310815
0.316474
0.322723
0.32943
0.336474
0.343744
0.351142
0.358584
0.365998
0.373328
0.380527
0.387561
0.394407
0.401049
0.407478
0.413686
0.419662
0.425392
0.430864
0.436062
0.440971
0.445577
0.449872
0.453857
0.457552
0.460997
0.46424
0.46733
0.470304
0.473179
0.475959
0.478637
0.481199
0.483637
0.485949
0.488143
0.490235
0.492245
0.494197
0.496112
0.498008
0.4999
0.501802
0.503728
0.505694
0.507714
0.5098
0.51196
0.514196
0.516508
0.51889
0.521332
0.523825
0.526358
0.528919
0.531497
0.534079
0.536654
0.53921
0.541765
0.544293
0.546771
0.54918
0.551504
0.553733
0.555866
0.557945
0.559984
0.561996
0.563989
0.565964
0.567924
0.569865
0.571785
0.573684
0.575563
0.577426
0.579277
0.581127
0.582984
0.58486
0.586766
0.588715
0.590714
0.592774
0.594902
0.597105
0.599394
0.601778
0.604272
0.606892
0.609654
0.612593
0.615759
0.619215
0.623051
0.627397
0.632454
0.638523
0.646079
0.655863
0.669006
0.68707
0.711576
0.741666
0.770128
0.788205
0.796118
0.798853
0.799686
0.79992
0.799981
0.799996
0.799999
0.8
0.8
0.8
0.8
0.8
0.8
0.8
0.8
0.8
0.8
0.8
0.8
0.8
0.8
0.8
0.8
0.8
0.8
0.8
0.8
0.8
0.8
0.8
0.8
0.8
0.8
0.8
0.8
0.8
0.8
0.8
0.8
0.8
0.30829
0.311184
0.315076
0.319832
0.325318
0.3314
0.337951
0.344849
0.351984
0.359255
0.366579
0.373885
0.381118
0.388235
0.395207
0.402015
0.408647
0.415095
0.421346
0.427385
0.433197
0.43876
0.44405
0.449046
0.45387
0.45834
0.462259
0.4658
0.469021
0.472002
0.474828
0.47756
0.480228
0.48283
0.485346
0.487741
0.48999
0.49208
0.494019
0.495826
0.497534
0.499179
0.50079
0.502389
0.503994
0.505618
0.50728
0.508999
0.510796
0.512688
0.514687
0.516796
0.519013
0.521331
0.523736
0.526217
0.528758
0.531345
0.533964
0.536602
0.539244
0.541893
0.544565
0.547217
0.549826
0.552358
0.554776
0.55705
0.559183
0.56124
0.563253
0.565243
0.56722
0.569188
0.571145
0.573082
0.574994
0.576878
0.578731
0.580557
0.582362
0.584156
0.585954
0.587771
0.589624
0.591527
0.593493
0.595532
0.597653
0.599864
0.602175
0.604598
0.607151
0.609856
0.612743
0.615831
0.619211
0.622967
0.627224
0.632174
0.638111
0.645494
0.65505
0.667914
0.685731
0.710256
0.740883
0.770044
0.788381
0.796248
0.79891
0.799706
0.799926
0.799983
0.799996
0.799999
0.8
0.8
0.8
0.8
0.8
0.8
0.8
0.8
0.8
0.8
0.8
0.8
0.8
0.8
0.8
0.8
0.8
0.8
0.8
0.8
0.8
0.8
0.8
0.8
0.8
0.8
0.8
0.8
0.8
0.8
0.8
0.8
0.8
0.8
0.317031
0.319838
0.32364
0.328315
0.333731
0.339759
0.346267
0.35313
0.360231
0.367469
0.374759
0.382031
0.389237
0.396339
0.403316
0.410157
0.416855
0.423398
0.429777
0.435978
0.441983
0.447767
0.453546
0.4595
0.465302
0.470752
0.475481
0.478759
0.481509
0.483895
0.486121
0.488318
0.490549
0.492813
0.495052
0.49718
0.499121
0.500838
0.502334
0.50364
0.504811
0.505916
0.507005
0.50811
0.509246
0.510426
0.511668
0.513
0.514451
0.516047
0.517803
0.519724
0.521804
0.524029
0.526382
0.528844
0.531395
0.534017
0.536692
0.539406
0.542144
0.544954
0.5478
0.550667
0.553526
0.556326
0.558973
0.561362
0.563484
0.565504
0.567474
0.569429
0.571392
0.573365
0.575337
0.577291
0.579212
0.581089
0.582919
0.5847
0.586439
0.588147
0.589846
0.591561
0.593317
0.595137
0.597037
0.599028
0.60112
0.603321
0.605641
0.608096
0.610706
0.613502
0.616526
0.619837
0.62348
0.62763
0.632473
0.638296
0.645551
0.654958
0.667667
0.685415
0.710176
0.741391
0.770846
0.788916
0.796472
0.798984
0.799727
0.799931
0.799984
0.799997
0.799999
0.8
0.8
0.8
0.8
0.8
0.8
0.8
0.8
0.8
0.8
0.8
0.8
0.8
0.8
0.8
0.8
0.8
0.8
0.8
0.8
0.8
0.8
0.8
0.8
0.8
0.8
0.8
0.8
0.8
0.8
0.8
0.8
0.8
0.8
0.8
0.325057
0.327823
0.331607
0.336291
0.341748
0.34784
0.35443
0.361378
0.368559
0.375865
0.383209
0.390528
0.397781
0.404944
0.412007
0.418964
0.425813
0.432552
0.439176
0.445683
0.45206
0.458702
0.465932
0.473539
0.48157
0.489478
0.496675
0.500358
0.502301
0.503468
0.504441
0.505541
0.50694
0.50865
0.510534
0.512355
0.513879
0.515008
0.515732
0.516099
0.516225
0.516276
0.516366
0.516545
0.516822
0.517197
0.517687
0.518326
0.519166
0.520245
0.521587
0.523192
0.525043
0.527116
0.52938
0.531804
0.534359
0.53702
0.539767
0.542583
0.545456
0.548483
0.55162
0.554875
0.558247
0.561679
0.564938
0.567621
0.569733
0.571674
0.573548
0.575435
0.577379
0.579385
0.581423
0.583448
0.585426
0.587334
0.589156
0.590884
0.592517
0.594069
0.595574
0.597079
0.598633
0.600272
0.602022
0.603896
0.605903
0.608049
0.610344
0.612805
0.615458
0.618346
0.62153
0.625096
0.629162
0.633876
0.6396
0.646791
0.656187
0.668981
0.687042
0.712541
0.74445
0.773344
0.79014
0.7969
0.799109
0.799759
0.799939
0.799985
0.799997
0.799999
0.8
0.8
0.8
0.8
0.8
0.8
0.8
0.8
0.8
0.8
0.8
0.8
0.8
0.8
0.8
0.8
0.8
0.8
0.8
0.8
0.8
0.8
0.8
0.8
0.8
0.8
0.8
0.8
0.8
0.8
0.8
0.8
0.8
0.8
0.8
0.8
0.332425
0.33521
0.339056
0.343844
0.349435
0.355679
0.36242
0.369626
0.377087
0.384571
0.392065
0.399518
0.406903
0.414213
0.421448
0.428614
0.435723
0.44279
0.449832
0.45687
0.464211
0.47293
0.482912
0.494125
0.506803
0.518832
0.531326
0.535721
0.536314
0.534841
0.53321
0.532127
0.532031
0.533018
0.534881
0.537951
0.539147
0.539482
0.538927
0.537545
0.53557
0.533496
0.531635
0.530073
0.528768
0.527668
0.526763
0.52611
0.525805
0.525927
0.526511
0.527548
0.528996
0.5308
0.532902
0.535247
0.537788
0.540488
0.543321
0.546271
0.549399
0.55273
0.556308
0.56021
0.564563
0.569392
0.574162
0.577393
0.57951
0.581222
0.582846
0.584554
0.586456
0.588572
0.590823
0.593075
0.595247
0.597294
0.599181
0.600873
0.602348
0.603608
0.604711
0.605773
0.606892
0.608145
0.609574
0.611195
0.613009
0.615015
0.617217
0.619632
0.622298
0.625276
0.628659
0.632589
0.637276
0.643034
0.650298
0.65993
0.673292
0.692411
0.719357
0.751553
0.778107
0.792189
0.797569
0.799298
0.799808
0.79995
0.799988
0.799997
0.799999
0.8
0.8
0.8
0.8
0.8
0.8
0.8
0.8
0.8
0.8
0.8
0.8
0.8
0.8
0.8
0.8
0.8
0.8
0.8
0.8
0.8
0.8
0.8
0.8
0.8
0.8
0.8
0.8
0.8
0.8
0.8
0.8
0.8
0.8
0.8
0.8
0.8
0.339176
0.342054
0.346065
0.351085
0.356958
0.363507
0.370553
0.378009
0.385685
0.393346
0.401529
0.409216
0.416825
0.424369
0.431871
0.43936
0.446873
0.454461
0.462187
0.470131
0.480213
0.492808
0.508324
0.524535
0.543029
0.556357
0.572329
0.57569
0.575418
0.570385
0.565701
0.562189
0.56067
0.561606
0.56693
0.574669
0.577836
0.577864
0.575993
0.572106
0.566429
0.56057
0.555448
0.551152
0.547419
0.543995
0.540784
0.537882
0.535527
0.533928
0.533166
0.533212
0.533969
0.535319
0.537145
0.539347
0.541845
0.54458
0.547518
0.550641
0.554048
0.557795
0.562
0.566882
0.572922
0.580336
0.588053
0.591708
0.593701
0.594735
0.595755
0.597041
0.59886
0.60129
0.604583
0.607729
0.61038
0.612808
0.614956
0.616734
0.618043
0.618818
0.619135
0.619324
0.619598
0.62012
0.620968
0.62215
0.623643
0.62542
0.627468
0.629806
0.632484
0.635603
0.639329
0.643912
0.649736
0.657408
0.667908
0.682747
0.703952
0.732398
0.76285
0.784532
0.79471
0.79837
0.799526
0.799868
0.799965
0.799991
0.799998
0.8
0.8
0.8
0.8
0.8
0.8
0.8
0.8
0.8
0.8
0.8
0.8
0.8
0.8
0.8
0.8
0.8
0.8
0.8
0.8
0.8
0.8
0.8
0.8
0.8
0.8
0.8
0.8
0.8
0.8
0.8
0.8
0.8
0.8
0.8
0.8
0.8
0.8
0.8
0.345344
0.348396
0.352691
0.358097
0.364434
0.371479
0.379011
0.386879
0.394891
0.402877
0.411229
0.419412
0.42783
0.435719
0.443603
0.451564
0.459691
0.4681
0.476951
0.487653
0.502202
0.522313
0.545581
0.563373
0.583798
0.589835
0.594864
0.629597
0.642457
0.587013
0.583701
0.580934
0.57999
0.582374
0.591632
0.604058
0.608642
0.610509
0.609989
0.606468
0.598403
0.589482
0.582074
0.576096
0.570755
0.565405
0.559763
0.553986
0.548697
0.54452
0.541732
0.540305
0.540054
0.540755
0.542195
0.544203
0.546643
0.549425
0.552494
0.555838
0.559575
0.563806
0.568748
0.574842
0.583328
0.594072
0.604885
0.608467
0.610185
0.609807
0.60996
0.61063
0.612416
0.615629
0.623178
0.628103
0.63191
0.63512
0.637982
0.640304
0.641778
0.642014
0.640893
0.639545
0.638358
0.637694
0.637694
0.638315
0.639455
0.641024
0.642974
0.645314
0.648129
0.651612
0.656102
0.662113
0.670425
0.682226
0.699162
0.722613
0.750807
0.776008
0.790912
0.797011
0.799084
0.79973
0.799923
0.799979
0.799994
0.799999
0.8
0.8
0.8
0.8
0.8
0.8
0.8
0.8
0.8
0.8
0.8
0.8
0.8
0.8
0.8
0.8
0.8
0.8
0.8
0.8
0.8
0.8
0.8
0.8
0.8
0.8
0.8
0.8
0.8
0.8
0.8
0.8
0.8
0.8
0.8
0.8
0.8
0.8
0.8
0.8
0.350968
0.354284
0.359007
0.365001
0.372044
0.37984
0.388084
0.39655
0.405051
0.413501
0.422125
0.430593
0.439347
0.448691
0.45712
0.465776
0.474851
0.484595
0.495389
0.512016
0.533881
0.564098
0.591502
0.601661
0.609324
0.739552
0.797421
0.798088
0.794449
0.782637
0.646796
0.594616
0.593619
0.597916
0.61317
0.620443
0.689595
0.781343
0.765205
0.661774
0.60902
0.60319
0.59861
0.59499
0.591289
0.586596
0.580287
0.572317
0.563867
0.55665
0.551446
0.548286
0.546878
0.546861
0.547905
0.549742
0.552171
0.555051
0.558303
0.561918
0.565991
0.570672
0.576281
0.583565
0.595105
0.607748
0.616654
0.653656
0.689086
0.628791
0.627045
0.626091
0.627435
0.633007
0.65149
0.658482
0.662787
0.667079
0.671503
0.675193
0.67778
0.677731
0.673096
0.668706
0.66483
0.662257
0.661202
0.661357
0.66237
0.664
0.666138
0.668802
0.672168
0.676662
0.683091
0.692544
0.706328
0.725452
0.748892
0.771654
0.787605
0.795571
0.798563
0.799555
0.799866
0.799961
0.799989
0.799997
0.799999
0.8
0.8
0.8
0.8
0.8
0.8
0.8
0.8
0.8
0.8
0.8
0.8
0.8
0.8
0.8
0.8
0.8
0.8
0.8
0.8
0.8
0.8
0.8
0.8
0.8
0.8
0.8
0.8
0.8
0.8
0.8
0.8
0.8
0.8
0.8
0.8
0.8
0.8
0.8
0.8
0.8
0.356088
0.359773
0.365108
0.371969
0.380077
0.388992
0.398246
0.407534
0.416701
0.425726
0.434735
0.44362
0.452729
0.462425
0.473139
0.482885
0.493521
0.505636
0.521904
0.551164
0.578647
0.613594
0.624326
0.732042
0.797172
0.799592
0.799982
0.79999
0.799973
0.799894
0.797646
0.683473
0.612764
0.618059
0.636129
0.776494
0.79978
0.799956
0.7998
0.797188
0.665769
0.613081
0.611006
0.610279
0.609205
0.606641
0.601277
0.591741
0.579244
0.568542
0.560903
0.556136
0.553724
0.553142
0.553944
0.555768
0.558335
0.561439
0.564956
0.56888
0.573231
0.578192
0.584158
0.59234
0.607519
0.618787
0.739538
0.79923
0.799344
0.794667
0.72451
0.640651
0.641204
0.651102
0.676693
0.772862
0.799639
0.79493
0.799888
0.79978
0.798284
0.767992
0.687582
0.686684
0.684148
0.682724
0.683188
0.685032
0.687814
0.691332
0.695562
0.70059
0.70661
0.714189
0.724861
0.739457
0.757022
0.774247
0.78725
0.794708
0.798087
0.79937
0.799801
0.799939
0.799982
0.799995
0.799998
0.8
0.8
0.8
0.8
0.8
0.8
0.8
0.8
0.8
0.8
0.8
0.8
0.8
0.8
0.8
0.8
0.8
0.8
0.8
0.8
0.8
0.8
0.8
0.8
0.8
0.8
0.8
0.8
0.8
0.8
0.8
0.8
0.8
0.8
0.8
0.8
0.8
0.8
0.8
0.8
0.8
0.8
0.8
0.36075
0.364916
0.371103
0.379257
0.389007
0.399626
0.410311
0.420701
0.430711
0.440404
0.449919
0.459341
0.469003
0.479259
0.490806
0.504454
0.518093
0.535311
0.570706
0.619612
0.637565
0.656387
0.791055
0.79939
0.799974
0.799997
0.8
0.8
0.8
0.8
0.799984
0.792507
0.728773
0.642581
0.728539
0.797142
0.799982
0.8
0.799999
0.799985
0.795999
0.644195
0.709394
0.745762
0.734623
0.672428
0.632682
0.595952
0.584983
0.575285
0.567621
0.562475
0.559743
0.559053
0.559978
0.56212
0.565124
0.568698
0.572604
0.576858
0.581384
0.586335
0.592096
0.600552
0.61848
0.768709
0.79964
0.799997
0.799998
0.799965
0.799106
0.704183
0.653292
0.680811
0.726216
0.790521
0.799966
0.799983
0.8
0.799999
0.799997
0.799941
0.799507
0.7765
0.696016
0.698353
0.703021
0.709165
0.716602
0.725247
0.734821
0.744573
0.753429
0.761145
0.770767
0.781106
0.789649
0.795131
0.797979
0.79924
0.799737
0.799914
0.799973
0.799992
0.799998
0.799999
0.8
0.8
0.8
0.8
0.8
0.8
0.8
0.8
0.8
0.8
0.8
0.8
0.8
0.8
0.8
0.8
0.8
0.8
0.8
0.8
0.8
0.8
0.8
0.8
0.8
0.8
0.8
0.8
0.8
0.8
0.8
0.8
0.8
0.8
0.8
0.8
0.8
0.8
0.8
0.8
0.8
0.8
0.8
0.8
0.36499
0.36974
0.377091
0.387212
0.399644
0.413047
0.425825
0.437683
0.448709
0.459141
0.469268
0.479375
0.48987
0.501227
0.514217
0.530803
0.554663
0.587072
0.651829
0.69288
0.786161
0.796987
0.799899
0.799995
0.8
0.8
0.8
0.8
0.8
0.8
0.8
0.799933
0.785508
0.665209
0.764369
0.799215
0.799995
0.8
0.8
0.8
0.753638
0.67974
0.781719
0.799121
0.798264
0.742637
0.666274
0.599385
0.588425
0.579429
0.57218
0.567246
0.564741
0.564447
0.566007
0.569019
0.573033
0.577631
0.582123
0.586771
0.591715
0.596928
0.602897
0.611592
0.631157
0.78351
0.799871
0.799999
0.8
0.8
0.799991
0.747863
0.690721
0.773176
0.787145
0.798269
0.799993
0.8
0.8
0.8
0.8
0.8
0.799999
0.799253
0.725082
0.732447
0.742163
0.753061
0.763896
0.773528
0.781226
0.786593
0.789476
0.790068
0.793187
0.796306
0.79828
0.799279
0.79972
0.799898
0.799965
0.799989
0.799996
0.799999
0.8
0.8
0.8
0.8
0.8
0.8
0.8
0.8
0.8
0.8
0.8
0.8
0.8
0.8
0.8
0.8
0.8
0.8
0.8
0.8
0.8
0.8
0.8
0.8
0.8
0.8
0.8
0.8
0.8
0.8
0.8
0.8
0.8
0.8
0.8
0.8
0.8
0.8
0.8
0.8
0.8
0.8
0.8
0.8
0.8
0.8
0.368834
0.374199
0.383035
0.396209
0.413472
0.432224
0.448427
0.46238
0.47447
0.485547
0.496341
0.507386
0.519325
0.533006
0.549792
0.573017
0.612844
0.694536
0.773251
0.798005
0.799885
0.79996
0.799999
0.8
0.8
0.8
0.8
0.8
0.8
0.8
0.8
0.799993
0.798731
0.703824
0.79325
0.799981
0.8
0.8
0.8
0.8
0.777745
0.731426
0.798906
0.799985
0.799985
0.781692
0.704378
0.601117
0.590487
0.581917
0.57514
0.570737
0.56892
0.56962
0.572682
0.577888
0.584637
0.614605
0.623952
0.629999
0.635896
0.640562
0.641092
0.644065
0.652917
0.780442
0.799806
0.799999
0.8
0.8
0.8
0.77809
0.725501
0.799412
0.799869
0.799786
0.799985
0.8
0.8
0.8
0.8
0.8
0.8
0.799997
0.799921
0.799415
0.798667
0.799438
0.799562
0.799523
0.799667
0.799781
0.799613
0.797108
0.798559
0.799375
0.799749
0.799904
0.799965
0.799988
0.799996
0.799999
0.8
0.8
0.8
0.8
0.8
0.8
0.8
0.8
0.8
0.8
0.8
0.8
0.8
0.8
0.8
0.8
0.8
0.8
0.8
0.8
0.8
0.8
0.8
0.8
0.8
0.8
0.8
0.8
0.8
0.8
0.8
0.8
0.8
0.8
0.8
0.8
0.8
0.8
0.8
0.8
0.8
0.8
0.8
0.8
0.8
0.8
0.8
0.8
0.372288
0.378101
0.388507
0.406928
0.437971
0.479997
0.514383
0.543398
0.524121
0.529274
0.540089
0.552132
0.566282
0.584502
0.609049
0.647956
0.711065
0.787391
0.799682
0.799974
0.799999
0.8
0.8
0.8
0.8
0.8
0.8
0.8
0.8
0.8
0.8
0.8
0.799983
0.739943
0.799152
0.799999
0.8
0.8
0.8
0.8
0.79354
0.782354
0.799983
0.8
0.8
0.79664
0.685681
0.601748
0.591432
0.583367
0.577298
0.573823
0.573305
0.575945
0.582068
0.603539
0.630268
0.666172
0.768556
0.79028
0.779472
0.760812
0.670146
0.669043
0.66796
0.765733
0.799549
0.799997
0.8
0.8
0.8
0.793983
0.765322
0.799264
0.799999
0.79999
0.799999
0.8
0.8
0.8
0.8
0.8
0.8
0.8
0.8
0.799997
0.799993
0.799997
0.799998
0.799998
0.799999
0.799999
0.799999
0.799991
0.799996
0.799998
0.799999
0.8
0.8
0.8
0.8
0.8
0.8
0.8
0.8
0.8
0.8
0.8
0.8
0.8
0.8