/*--------------------------------*- C++ -*----------------------------------*\
| =========                 |                                                 |
| \\      /  F ield         | OpenFOAM: The Open Source CFD Toolbox           |
|  \\    /   O peration     | Version:  2.1.0                                 |
|   \\  /    A nd           | Web:      www.OpenFOAM.org                      |
|    \\/     M anipulation  |                                                 |
\*---------------------------------------------------------------------------*/
FoamFile
{
    version     2.0;
    format      ascii;
    class       volScalarField;
    location    "28105";
    object      sw;
}
// * * * * * * * * * * * * * * * * * * * * * * * * * * * * * * * * * * * * * //

dimensions      [0 0 0 0 0 0 0];

internalField   nonuniform List<scalar> 
15000
(
0.8
0.799998
0.799926
0.79881
0.794082
0.784611
0.771962
0.758102
0.744199
0.730776
0.718027
0.706003
0.694695
0.684073
0.674097
0.664728
0.655924
0.647646
0.639858
0.632522
0.625605
0.619073
0.612897
0.607046
0.601492
0.596208
0.591166
0.586343
0.58172
0.57728
0.573006
0.568885
0.564903
0.561049
0.557311
0.553681
0.550147
0.546703
0.543341
0.540052
0.53683
0.533669
0.530564
0.52751
0.524502
0.521536
0.51861
0.51572
0.512864
0.510042
0.507251
0.504492
0.501763
0.499066
0.496401
0.493768
0.491169
0.488604
0.486074
0.48358
0.481122
0.478701
0.476316
0.473968
0.471656
0.469378
0.467134
0.464922
0.462741
0.460588
0.458462
0.456361
0.454283
0.452227
0.45019
0.44817
0.446165
0.444173
0.442193
0.440223
0.438261
0.436304
0.434352
0.432402
0.430452
0.428503
0.426551
0.424596
0.422637
0.420672
0.4187
0.416719
0.414728
0.412725
0.410709
0.408679
0.406634
0.40457
0.402486
0.400381
0.398253
0.396098
0.393913
0.391694
0.389436
0.387133
0.384779
0.382363
0.379877
0.377306
0.374637
0.371848
0.368918
0.36582
0.362523
0.358996
0.355204
0.351106
0.346645
0.341727
0.336188
0.329759
0.322013
0.312324
0.299856
0.283772
0.264142
0.243351
0.22566
0.213743
0.206999
0.203524
0.201789
0.200918
0.200477
0.200249
0.20013
0.200068
0.200035
0.200018
0.200009
0.200004
0.200002
0.200001
0.2
0.2
0.2
0.2
0.2
0.2
0.799998
0.799991
0.799655
0.79737
0.790925
0.780363
0.767465
0.75381
0.740267
0.727219
0.714812
0.703084
0.692029
0.681619
0.671822
0.662604
0.653928
0.64576
0.638064
0.630808
0.623959
0.617488
0.611365
0.605561
0.600049
0.594802
0.589792
0.585
0.580404
0.57599
0.57174
0.567643
0.563684
0.559853
0.556138
0.552529
0.549018
0.545596
0.542255
0.538987
0.535787
0.532647
0.529563
0.52653
0.523541
0.520594
0.517686
0.514813
0.511974
0.509167
0.50639
0.503642
0.500925
0.498237
0.49558
0.492954
0.49036
0.487799
0.485272
0.48278
0.480323
0.477903
0.475518
0.473169
0.470856
0.468576
0.46633
0.464115
0.46193
0.459774
0.457645
0.455541
0.45346
0.4514
0.449359
0.447334
0.445325
0.443328
0.441343
0.439367
0.437398
0.435433
0.433471
0.43151
0.429549
0.427586
0.42562
0.423647
0.421668
0.41968
0.417682
0.415672
0.413647
0.411606
0.409547
0.407467
0.405364
0.403236
0.401079
0.39889
0.396665
0.394398
0.392083
0.389712
0.387276
0.384762
0.382154
0.379435
0.376579
0.373555
0.370322
0.366829
0.363015
0.358808
0.354135
0.348926
0.343121
0.336664
0.329465
0.321334
0.31189
0.300482
0.28623
0.268569
0.248665
0.230153
0.216615
0.20858
0.204384
0.202293
0.201232
0.200678
0.20038
0.200219
0.200128
0.200075
0.200044
0.200025
0.200014
0.200008
0.200004
0.200002
0.200001
0.200001
0.2
0.2
0.2
0.2
0.2
0.2
0.799929
0.799662
0.798234
0.79377
0.785358
0.773985
0.761172
0.747991
0.735013
0.7225
0.710562
0.699233
0.688512
0.678383
0.668822
0.659803
0.651296
0.643271
0.635699
0.62855
0.621795
0.615408
0.609359
0.603621
0.598168
0.592973
0.588012
0.583263
0.57871
0.574336
0.570126
0.566067
0.562146
0.558351
0.554673
0.5511
0.547624
0.544237
0.540931
0.537697
0.534531
0.531425
0.528373
0.525371
0.522412
0.519494
0.516612
0.513765
0.510949
0.508162
0.505404
0.502673
0.499969
0.497293
0.494646
0.492028
0.489441
0.486885
0.484361
0.481871
0.479416
0.476996
0.474612
0.472263
0.469948
0.467668
0.465421
0.463206
0.461021
0.458864
0.456734
0.454629
0.452548
0.450486
0.448443
0.446417
0.444405
0.442406
0.440417
0.438437
0.436463
0.434493
0.432524
0.430555
0.428585
0.42661
0.42463
0.422642
0.420644
0.418635
0.416612
0.414573
0.412514
0.410435
0.408332
0.406201
0.40404
0.401845
0.399611
0.397333
0.395004
0.392616
0.390158
0.387618
0.384978
0.382218
0.379309
0.376215
0.372884
0.369252
0.36523
0.360705
0.355543
0.349593
0.34271
0.334782
0.325741
0.315539
0.304061
0.290989
0.275774
0.258221
0.239802
0.223805
0.212712
0.206338
0.203084
0.201518
0.200782
0.200433
0.20025
0.200148
0.200089
0.200056
0.200036
0.200023
0.200015
0.200009
0.200005
0.200003
0.200002
0.200001
0.200001
0.2
0.2
0.2
0.2
0.2
0.2
0.2
0.798864
0.797453
0.793859
0.787075
0.777371
0.765837
0.753494
0.741001
0.728723
0.716844
0.705454
0.694588
0.684257
0.674456
0.665172
0.656387
0.648079
0.640226
0.632802
0.625782
0.619142
0.612856
0.606898
0.601242
0.595862
0.590733
0.585834
0.581144
0.576648
0.572328
0.568171
0.564164
0.560294
0.556549
0.552919
0.549395
0.545968
0.542628
0.539369
0.536183
0.533063
0.530002
0.526993
0.524032
0.521113
0.518233
0.515387
0.512572
0.509786
0.507026
0.504291
0.501581
0.498895
0.496234
0.493599
0.49099
0.48841
0.485859
0.48334
0.480853
0.478399
0.47598
0.473596
0.471247
0.468933
0.466653
0.464407
0.462192
0.460008
0.457852
0.455723
0.45362
0.451539
0.449478
0.447436
0.44541
0.443399
0.441399
0.43941
0.437428
0.435452
0.433478
0.431504
0.42953
0.427551
0.425567
0.423575
0.421572
0.419557
0.417526
0.415478
0.41341
0.411318
0.409199
0.407051
0.404868
0.402646
0.40038
0.398063
0.395688
0.393245
0.390722
0.388104
0.385368
0.382489
0.37943
0.376144
0.372562
0.368591
0.364105
0.358934
0.35286
0.345631
0.336987
0.326714
0.314705
0.300997
0.285742
0.269156
0.251729
0.234886
0.22094
0.211351
0.205729
0.202768
0.201305
0.20061
0.200289
0.200145
0.200086
0.200053
0.200033
0.200021
0.200014
0.20001
0.200007
0.200005
0.200003
0.200002
0.200001
0.200001
0.200001
0.2
0.2
0.2
0.2
0.2
0.2
0.2
0.2
0.794367
0.791254
0.785684
0.777592
0.767592
0.756472
0.744863
0.733177
0.721662
0.710461
0.699654
0.689285
0.679373
0.669928
0.660945
0.652417
0.64433
0.636666
0.629408
0.622534
0.616024
0.609853
0.603998
0.598435
0.59314
0.58809
0.583265
0.578646
0.574219
0.569967
0.565876
0.561933
0.558126
0.554443
0.550876
0.547413
0.544046
0.540767
0.537568
0.534441
0.531379
0.528374
0.52542
0.522512
0.519643
0.51681
0.514009
0.511235
0.508486
0.505759
0.503053
0.500367
0.497702
0.495058
0.492437
0.48984
0.487268
0.484723
0.482208
0.479723
0.47727
0.474852
0.472468
0.470119
0.467805
0.465526
0.463281
0.461068
0.458886
0.456733
0.454607
0.452507
0.450429
0.448371
0.446332
0.444309
0.4423
0.440303
0.438315
0.436334
0.434357
0.432382
0.430406
0.428428
0.426444
0.424452
0.422449
0.420432
0.4184
0.416348
0.414275
0.412177
0.410051
0.407892
0.405696
0.403457
0.401169
0.398827
0.39642
0.393938
0.391369
0.388693
0.385887
0.38292
0.37975
0.376318
0.372543
0.368308
0.363451
0.357743
0.350885
0.342506
0.332203
0.319625
0.304607
0.287339
0.268531
0.249588
0.232613
0.219518
0.210792
0.205632
0.20282
0.201366
0.200641
0.200291
0.200127
0.200054
0.200024
0.200016
0.200011
0.200007
0.200005
0.200003
0.200002
0.200002
0.200002
0.200001
0.200001
0.200001
0.2
0.2
0.2
0.2
0.2
0.2
0.2
0.2
0.2
0.2
0.785351
0.781117
0.77469
0.766401
0.756797
0.746411
0.735651
0.724803
0.714055
0.703532
0.69331
0.683442
0.673959
0.664879
0.656209
0.64795
0.640093
0.632631
0.625549
0.618831
0.612458
0.606411
0.600668
0.595207
0.590005
0.585043
0.580303
0.575768
0.571421
0.567248
0.563235
0.559369
0.555637
0.552029
0.548535
0.545146
0.541852
0.538646
0.535519
0.532464
0.529472
0.526536
0.523649
0.520805
0.517998
0.515223
0.512475
0.50975
0.507045
0.504358
0.501686
0.49903
0.49639
0.493766
0.491161
0.488576
0.486013
0.483474
0.480962
0.478478
0.476026
0.473607
0.471223
0.468873
0.46656
0.464281
0.462038
0.459827
0.457649
0.4555
0.453379
0.451283
0.449211
0.447158
0.445124
0.443106
0.441101
0.439108
0.437125
0.435147
0.433173
0.431199
0.429223
0.427243
0.425255
0.423257
0.421244
0.419215
0.417165
0.415093
0.412994
0.410868
0.408706
0.406504
0.404257
0.401958
0.3996
0.397173
0.394667
0.392066
0.389351
0.386498
0.383471
0.380223
0.376691
0.372781
0.368359
0.363233
0.357128
0.349666
0.34036
0.328656
0.314046
0.296306
0.275877
0.254362
0.234702
0.219858
0.210591
0.205511
0.20283
0.201432
0.200709
0.200341
0.200157
0.200068
0.200027
0.200009
0.200005
0.200001
0.2
0.2
0.2
0.2
0.2
0.200001
0.200001
0.2
0.2
0.2
0.2
0.2
0.2
0.2
0.2
0.2
0.2
0.2
0.2
0.2
0.773306
0.768768
0.762367
0.7545
0.7456
0.736047
0.72614
0.716099
0.706083
0.696205
0.686546
0.677165
0.668101
0.659382
0.651024
0.643033
0.63541
0.628151
0.621248
0.614688
0.608457
0.602537
0.59691
0.591555
0.586453
0.581588
0.576942
0.572499
0.568244
0.564162
0.560238
0.55646
0.552815
0.549294
0.545885
0.542581
0.539373
0.536252
0.533211
0.530239
0.527331
0.524477
0.52167
0.518902
0.516169
0.513462
0.510779
0.508113
0.50546
0.50282
0.500189
0.497568
0.494956
0.492355
0.489768
0.487195
0.484641
0.482108
0.479598
0.477115
0.474662
0.472241
0.469854
0.467503
0.465188
0.46291
0.460668
0.458462
0.456288
0.454145
0.45203
0.449941
0.447875
0.44583
0.443802
0.441791
0.439793
0.437807
0.43583
0.433858
0.431889
0.429919
0.427946
0.425966
0.423977
0.421973
0.419953
0.417911
0.415845
0.413753
0.411629
0.40947
0.407271
0.405024
0.402723
0.400359
0.397924
0.395404
0.392786
0.39005
0.387168
0.384104
0.380811
0.377218
0.373225
0.368688
0.363396
0.357035
0.349167
0.339205
0.326444
0.31021
0.290216
0.267242
0.244003
0.224801
0.212347
0.205768
0.202704
0.20135
0.200693
0.200354
0.200177
0.200086
0.200039
0.200016
0.200006
0.200002
0.2
0.2
0.2
0.2
0.2
0.2
0.2
0.2
0.2
0.2
0.2
0.2
0.2
0.2
0.2
0.2
0.2
0.2
0.2
0.2
0.2
0.2
0.760135
0.755746
0.749761
0.742529
0.734394
0.72565
0.716534
0.707231
0.697884
0.688601
0.679465
0.67054
0.661873
0.653499
0.645439
0.637707
0.630311
0.623251
0.616522
0.610118
0.604025
0.59823
0.592717
0.587469
0.582471
0.577708
0.573164
0.568824
0.564671
0.56069
0.556867
0.553188
0.549642
0.546218
0.542906
0.539699
0.536588
0.533565
0.530622
0.527749
0.524938
0.52218
0.519467
0.51679
0.514143
0.511518
0.50891
0.506314
0.503725
0.50114
0.498557
0.495975
0.493397
0.490822
0.488254
0.485696
0.48315
0.48062
0.47811
0.475626
0.473169
0.470743
0.468351
0.465996
0.46368
0.461402
0.459162
0.456959
0.454791
0.452654
0.450547
0.448466
0.446409
0.444372
0.442354
0.440352
0.438364
0.436387
0.434418
0.432455
0.430493
0.42853
0.426563
0.424587
0.422597
0.420591
0.418564
0.416512
0.414432
0.412319
0.410168
0.407975
0.405737
0.403442
0.401081
0.398646
0.396124
0.393501
0.390756
0.387863
0.384784
0.38147
0.377849
0.37382
0.369231
0.36386
0.357373
0.349289
0.338938
0.325485
0.308081
0.286346
0.261401
0.237116
0.21877
0.208254
0.203362
0.201343
0.20056
0.200287
0.200154
0.200081
0.200042
0.200021
0.20001
0.200004
0.200001
0.2
0.2
0.2
0.2
0.2
0.2
0.2
0.2
0.2
0.2
0.2
0.2
0.2
0.2
0.2
0.2
0.2
0.2
0.2
0.2
0.2
0.2
0.2
0.746986
0.742907
0.737428
0.730838
0.723412
0.71539
0.706972
0.69832
0.689564
0.680812
0.672147
0.663636
0.655333
0.647277
0.639494
0.632004
0.62482
0.617945
0.61138
0.60512
0.599156
0.593477
0.588071
0.582927
0.578033
0.573375
0.56894
0.564711
0.560671
0.556804
0.553093
0.549525
0.546088
0.542772
0.539568
0.536469
0.533467
0.530555
0.527724
0.524965
0.522268
0.519622
0.517019
0.514449
0.511903
0.509375
0.506857
0.504344
0.501829
0.49931
0.496783
0.494249
0.491709
0.489163
0.486617
0.484071
0.481532
0.479005
0.476493
0.474003
0.471539
0.469104
0.466704
0.464343
0.462021
0.459741
0.457503
0.455303
0.453141
0.451013
0.448915
0.446844
0.444797
0.442771
0.440763
0.438772
0.436795
0.434829
0.432871
0.430919
0.428969
0.427017
0.425059
0.423089
0.421103
0.419097
0.417065
0.415004
0.412909
0.410776
0.408597
0.406369
0.404086
0.401738
0.399313
0.3968
0.394183
0.391443
0.388552
0.385474
0.382159
0.378538
0.374507
0.369915
0.364536
0.35803
0.349889
0.33939
0.325583
0.307446
0.28445
0.257969
0.232915
0.215279
0.206089
0.202216
0.200765
0.200255
0.200082
0.200049
0.200028
0.200016
0.200009
0.200004
0.200002
0.200001
0.2
0.2
0.2
0.2
0.2
0.2
0.2
0.2
0.2
0.2
0.2
0.2
0.2
0.2
0.2
0.2
0.2
0.2
0.2
0.2
0.2
0.2
0.2
0.2
0.734382
0.73063
0.725624
0.7196
0.712783
0.705375
0.697548
0.689449
0.681201
0.672907
0.664652
0.656506
0.648525
0.64075
0.633215
0.625943
0.618948
0.612238
0.605818
0.599683
0.59383
0.588251
0.58294
0.577892
0.573097
0.568546
0.564224
0.560114
0.556199
0.552457
0.548872
0.545427
0.54211
0.538912
0.535826
0.532846
0.529966
0.527179
0.524477
0.521848
0.519282
0.516768
0.514293
0.511849
0.509425
0.507011
0.504601
0.502186
0.499761
0.49732
0.49486
0.492381
0.489885
0.487373
0.484848
0.482317
0.479783
0.477255
0.474737
0.472237
0.469759
0.467311
0.464897
0.462524
0.460193
0.457908
0.455669
0.453473
0.451317
0.449198
0.447111
0.445052
0.443017
0.441002
0.439007
0.437028
0.435063
0.43311
0.431167
0.42923
0.427295
0.425358
0.423412
0.421452
0.419473
0.417469
0.415436
0.413368
0.41126
0.409105
0.406897
0.404631
0.402297
0.399894
0.397399
0.394799
0.392074
0.389198
0.386136
0.382838
0.379237
0.37523
0.370672
0.365337
0.358888
0.350811
0.340352
0.326478
0.307993
0.284163
0.256454
0.230641
0.213347
0.204944
0.201659
0.20052
0.200153
0.200041
0.200009
0.200001
0.2
0.2
0.2
0.2
0.2
0.2
0.2
0.2
0.2
0.2
0.2
0.2
0.2
0.2
0.2
0.2
0.2
0.2
0.2
0.2
0.2
0.2
0.2
0.2
0.2
0.2
0.2
0.2
0.2
0.2
0.722521
0.719061
0.714455
0.708897
0.702576
0.695666
0.688321
0.680675
0.672845
0.664932
0.657021
0.649183
0.641474
0.633941
0.626618
0.61953
0.612694
0.606121
0.599816
0.593778
0.588008
0.582505
0.57727
0.572303
0.567598
0.563148
0.558942
0.554961
0.551183
0.547582
0.544137
0.540829
0.537644
0.534575
0.531616
0.528766
0.526021
0.523375
0.520819
0.518341
0.515928
0.513568
0.511246
0.508951
0.506671
0.504395
0.502114
0.499819
0.497501
0.495154
0.492775
0.490362
0.487917
0.485442
0.482941
0.480423
0.477893
0.47536
0.472831
0.470313
0.467815
0.465345
0.462909
0.460516
0.45816
0.455849
0.453593
0.451395
0.449244
0.447134
0.445059
0.443012
0.44099
0.438989
0.437008
0.435043
0.433094
0.431159
0.429236
0.427321
0.425409
0.423493
0.421568
0.419627
0.417663
0.41567
0.413641
0.41157
0.40945
0.407276
0.405039
0.402734
0.40035
0.397881
0.395308
0.392609
0.38976
0.386726
0.383458
0.379892
0.37593
0.371427
0.36617
0.359828
0.351895
0.341608
0.327877
0.309356
0.285057
0.256363
0.2297
0.212364
0.204342
0.201375
0.200405
0.200111
0.200028
0.200006
0.200001
0.2
0.2
0.2
0.2
0.2
0.2
0.2
0.2
0.2
0.2
0.2
0.2
0.2
0.2
0.2
0.2
0.2
0.2
0.2
0.2
0.2
0.2
0.2
0.2
0.2
0.2
0.2
0.2
0.2
0.2
0.2
0.711459
0.708241
0.703952
0.698757
0.692821
0.686297
0.679324
0.672031
0.664528
0.656914
0.649276
0.641683
0.634193
0.626853
0.619699
0.612756
0.606042
0.599567
0.593337
0.587356
0.581631
0.57617
0.570979
0.566064
0.561428
0.55707
0.552979
0.549135
0.545511
0.542073
0.538789
0.535635
0.532596
0.529666
0.526844
0.524134
0.521536
0.519047
0.516659
0.514357
0.512127
0.50995
0.507811
0.505695
0.503589
0.50148
0.499357
0.497208
0.495023
0.492791
0.49051
0.488176
0.485791
0.483359
0.480886
0.47838
0.475851
0.473307
0.470759
0.468215
0.465686
0.463182
0.460712
0.458262
0.455856
0.453509
0.451228
0.449016
0.446874
0.444779
0.44272
0.440689
0.438682
0.436694
0.434725
0.432773
0.43084
0.428923
0.427021
0.42513
0.423245
0.421359
0.419463
0.417549
0.415609
0.413633
0.411616
0.409547
0.407421
0.40523
0.402968
0.400623
0.398185
0.395641
0.392985
0.390177
0.387182
0.383958
0.380439
0.376533
0.372103
0.366943
0.360735
0.352987
0.342942
0.329482
0.31114
0.286656
0.257182
0.229602
0.211945
0.204038
0.201227
0.200346
0.200091
0.200022
0.200005
0.200001
0.2
0.2
0.2
0.2
0.2
0.2
0.2
0.2
0.2
0.2
0.2
0.2
0.2
0.2
0.2
0.2
0.2
0.2
0.2
0.2
0.2
0.2
0.2
0.2
0.2
0.2
0.2
0.2
0.2
0.2
0.2
0.2
0.701197
0.698166
0.694113
0.689185
0.683526
0.677277
0.67057
0.663526
0.656256
0.648858
0.641416
0.634002
0.626672
0.619473
0.612439
0.605593
0.598951
0.592522
0.586314
0.580338
0.574608
0.569136
0.563938
0.559029
0.554423
0.550128
0.546143
0.542448
0.539003
0.53576
0.53267
0.529696
0.526821
0.524041
0.521363
0.518801
0.516363
0.514051
0.511857
0.509765
0.507755
0.505803
0.503888
0.501992
0.5001
0.498198
0.496272
0.494306
0.492286
0.4902
0.48804
0.485804
0.483492
0.48111
0.478668
0.476175
0.473642
0.471081
0.468503
0.465921
0.463346
0.46079
0.458235
0.455707
0.453229
0.45082
0.448496
0.446267
0.444134
0.442055
0.440016
0.438004
0.436011
0.434036
0.432076
0.430135
0.428215
0.426316
0.424437
0.422574
0.420723
0.418873
0.417016
0.41514
0.413234
0.411285
0.409286
0.407226
0.405098
0.402895
0.400606
0.398222
0.395728
0.393108
0.390346
0.387407
0.384241
0.380785
0.376949
0.372603
0.367546
0.361477
0.353921
0.344137
0.330994
0.31293
0.288424
0.258334
0.229872
0.211795
0.203882
0.201147
0.200314
0.20008
0.200019
0.200004
0.200001
0.2
0.2
0.2
0.2
0.2
0.2
0.2
0.2
0.2
0.2
0.2
0.2
0.2
0.2
0.2
0.2
0.2
0.2
0.2
0.2
0.2
0.2
0.2
0.2
0.2
0.2
0.2
0.2
0.2
0.2
0.2
0.2
0.2
0.69171
0.688816
0.684924
0.680168
0.674682
0.6686
0.662049
0.655151
0.648016
0.640745
0.633421
0.626115
0.618882
0.611765
0.604793
0.597985
0.591353
0.584905
0.578654
0.572615
0.566803
0.56124
0.55595
0.550954
0.54613
0.54166
0.537741
0.5342
0.530979
0.527998
0.525172
0.52244
0.519772
0.51717
0.514654
0.512259
0.51001
0.50792
0.505981
0.504174
0.502466
0.500821
0.49921
0.497611
0.496006
0.494382
0.49272
0.491001
0.489204
0.487312
0.485313
0.483204
0.480987
0.478669
0.476264
0.473783
0.471242
0.468655
0.466036
0.463398
0.460756
0.458107
0.455435
0.452783
0.450174
0.447642
0.445224
0.44295
0.440817
0.43876
0.436747
0.434757
0.43278
0.430812
0.428855
0.426918
0.425006
0.423122
0.421269
0.419443
0.417638
0.415844
0.414046
0.412229
0.410376
0.408473
0.406507
0.404468
0.402347
0.400136
0.397825
0.395402
0.392849
0.390144
0.387257
0.384169
0.380789
0.377033
0.372776
0.367826
0.361889
0.354506
0.34495
0.332086
0.314269
0.289744
0.259117
0.229956
0.211619
0.203752
0.20109
0.200294
0.200074
0.200017
0.200004
0.200001
0.2
0.2
0.2
0.2
0.2
0.2
0.2
0.2
0.2
0.2
0.2
0.2
0.2
0.2
0.2
0.2
0.2
0.2
0.2
0.2
0.2
0.2
0.2
0.2
0.2
0.2
0.2
0.2
0.2
0.2
0.2
0.2
0.2
0.2
0.682969
0.680162
0.67636
0.671685
0.666269
0.660241
0.653733
0.64687
0.639769
0.632531
0.625241
0.617969
0.610763
0.603661
0.596684
0.589843
0.583145
0.576602
0.570223
0.564022
0.558017
0.552233
0.546454
0.5405
0.534698
0.529248
0.524519
0.521241
0.518491
0.516105
0.513879
0.511682
0.509451
0.507187
0.504948
0.50282
0.500879
0.499162
0.497666
0.49636
0.495189
0.494084
0.492995
0.49189
0.490754
0.489574
0.488332
0.487
0.485549
0.483953
0.482197
0.480276
0.478196
0.475971
0.473618
0.471156
0.468605
0.465983
0.463308
0.460594
0.457856
0.455046
0.4522
0.449333
0.446474
0.443674
0.441027
0.438638
0.436516
0.434496
0.432526
0.430571
0.428608
0.426635
0.424663
0.422709
0.420788
0.418911
0.417081
0.4153
0.413561
0.411853
0.410154
0.408439
0.406683
0.404863
0.402963
0.400972
0.39888
0.396679
0.394359
0.391904
0.389294
0.386498
0.383474
0.380163
0.37652
0.37237
0.367527
0.361704
0.354449
0.345042
0.332333
0.314585
0.289824
0.258609
0.229154
0.211084
0.203528
0.201016
0.200273
0.200069
0.200016
0.200003
0.200001
0.2
0.2
0.2
0.2
0.2
0.2
0.2
0.2
0.2
0.2
0.2
0.2
0.2
0.2
0.2
0.2
0.2
0.2
0.2
0.2
0.2
0.2
0.2
0.2
0.2
0.2
0.2
0.2
0.2
0.2
0.2
0.2
0.2
0.2
0.2
0.674943
0.672177
0.668393
0.663709
0.658252
0.65216
0.64557
0.638622
0.631441
0.624135
0.616791
0.609472
0.602219
0.595056
0.587993
0.581036
0.574187
0.567448
0.560824
0.554317
0.54794
0.541298
0.534068
0.526461
0.51843
0.510522
0.503325
0.499642
0.497699
0.496532
0.495559
0.494459
0.49306
0.49135
0.489466
0.487645
0.486121
0.484992
0.484268
0.483901
0.483775
0.483724
0.483634
0.483455
0.483178
0.482803
0.482313
0.481674
0.480834
0.479755
0.478413
0.476808
0.474957
0.472884
0.47062
0.468196
0.465641
0.46298
0.460233
0.457417
0.454544
0.451517
0.44838
0.445125
0.441753
0.438321
0.435062
0.432379
0.430267
0.428326
0.426452
0.424565
0.422621
0.420615
0.418577
0.416552
0.414574
0.412666
0.410844
0.409116
0.407483
0.405931
0.404426
0.402921
0.401367
0.399728
0.397978
0.396104
0.394097
0.391951
0.389656
0.387195
0.384542
0.381654
0.37847
0.374904
0.370838
0.366124
0.3604
0.353209
0.343813
0.331019
0.312958
0.287459
0.25555
0.226656
0.20986
0.2031
0.200891
0.200241
0.200061
0.200015
0.200003
0.200001
0.2
0.2
0.2
0.2
0.2
0.2
0.2
0.2
0.2
0.2
0.2
0.2
0.2
0.2
0.2
0.2
0.2
0.2
0.2
0.2
0.2
0.2
0.2
0.2
0.2
0.2
0.2
0.2
0.2
0.2
0.2
0.2
0.2
0.2
0.2
0.2
0.667575
0.66479
0.660944
0.656156
0.650565
0.644321
0.63758
0.630374
0.622913
0.615429
0.607935
0.600482
0.593097
0.585787
0.578552
0.571386
0.564277
0.55721
0.550168
0.54313
0.535789
0.52707
0.517088
0.505875
0.493197
0.481168
0.468674
0.464279
0.463686
0.465159
0.46679
0.467873
0.467969
0.466982
0.465119
0.462049
0.460853
0.460518
0.461073
0.462455
0.46443
0.466504
0.468365
0.469927
0.471232
0.472332
0.473237
0.47389
0.474195
0.474073
0.473489
0.472452
0.471004
0.4692
0.467098
0.464753
0.462212
0.459512
0.456679
0.453729
0.450601
0.44727
0.443692
0.43979
0.435437
0.430608
0.425838
0.422607
0.42049
0.418778
0.417154
0.415446
0.413544
0.411428
0.409177
0.406925
0.404753
0.402706
0.400819
0.399127
0.397652
0.396392
0.395289
0.394227
0.393108
0.391855
0.390426
0.388805
0.386991
0.384985
0.382783
0.380368
0.377702
0.374724
0.371341
0.367411
0.362724
0.356966
0.349702
0.34007
0.326708
0.307589
0.280643
0.248447
0.221893
0.207811
0.202431
0.200702
0.200192
0.20005
0.200012
0.200003
0.200001
0.2
0.2
0.2
0.2
0.2
0.2
0.2
0.2
0.2
0.2
0.2
0.2
0.2
0.2
0.2
0.2
0.2
0.2
0.2
0.2
0.2
0.2
0.2
0.2
0.2
0.2
0.2
0.2
0.2
0.2
0.2
0.2
0.2
0.2
0.2
0.2
0.2
0.660824
0.657946
0.653935
0.648915
0.643042
0.636493
0.629447
0.621991
0.614315
0.606654
0.598471
0.590784
0.583175
0.575631
0.568129
0.56064
0.553127
0.545539
0.537813
0.529869
0.519787
0.507192
0.491676
0.475465
0.456971
0.443643
0.427671
0.42431
0.424582
0.429615
0.434299
0.437811
0.43933
0.438394
0.43307
0.425331
0.422164
0.422136
0.424007
0.427894
0.433571
0.43943
0.444552
0.448848
0.452581
0.456005
0.459216
0.462118
0.464473
0.466072
0.466834
0.466788
0.466031
0.464681
0.462855
0.460653
0.458155
0.45542
0.452482
0.449359
0.445952
0.442205
0.438
0.433118
0.427078
0.419664
0.411947
0.408292
0.406299
0.405265
0.404245
0.402959
0.40114
0.39871
0.395417
0.392271
0.38962
0.387192
0.385044
0.383266
0.381957
0.381182
0.380865
0.380676
0.380402
0.37988
0.379032
0.37785
0.376357
0.37458
0.372532
0.370194
0.367516
0.364397
0.360671
0.356088
0.350264
0.342592
0.332092
0.317253
0.296048
0.267602
0.23715
0.215468
0.20529
0.20163
0.200474
0.200132
0.200035
0.200009
0.200002
0.2
0.2
0.2
0.2
0.2
0.2
0.2
0.2
0.2
0.2
0.2
0.2
0.2
0.2
0.2
0.2
0.2
0.2
0.2
0.2
0.2
0.2
0.2
0.2
0.2
0.2
0.2
0.2
0.2
0.2
0.2
0.2
0.2
0.2
0.2
0.2
0.2
0.2
0.2
0.654656
0.651604
0.647309
0.641903
0.635566
0.628521
0.620989
0.613121
0.605109
0.597123
0.588771
0.580588
0.57217
0.564281
0.556397
0.548436
0.540309
0.5319
0.523049
0.512347
0.497798
0.477687
0.454419
0.436627
0.416202
0.410165
0.405136
0.370403
0.357543
0.412987
0.416299
0.419066
0.42001
0.417626
0.408368
0.395942
0.391358
0.389491
0.390011
0.393532
0.401597
0.410518
0.417926
0.423904
0.429245
0.434595
0.440237
0.446014
0.451303
0.45548
0.458268
0.459695
0.459946
0.459245
0.457805
0.455797
0.453357
0.450575
0.447506
0.444162
0.440425
0.436194
0.431252
0.425158
0.416672
0.405928
0.395115
0.391533
0.389815
0.390193
0.39004
0.38937
0.387584
0.384371
0.376822
0.371897
0.36809
0.36488
0.362018
0.359696
0.358222
0.357986
0.359107
0.360455
0.361642
0.362306
0.362306
0.361685
0.360545
0.358976
0.357026
0.354686
0.351871
0.348388
0.343898
0.337887
0.329575
0.317774
0.300838
0.277387
0.249193
0.223992
0.209088
0.202989
0.200916
0.20027
0.200077
0.200021
0.200006
0.200001
0.2
0.2
0.2
0.2
0.2
0.2
0.2
0.2
0.2
0.2
0.2
0.2
0.2
0.2
0.2
0.2
0.2
0.2
0.2
0.2
0.2
0.2
0.2
0.2
0.2
0.2
0.2
0.2
0.2
0.2
0.2
0.2
0.2
0.2
0.2
0.2
0.2
0.2
0.2
0.2
0.649032
0.645716
0.640993
0.634999
0.627956
0.62016
0.611916
0.60345
0.594949
0.586499
0.577875
0.569407
0.560653
0.551309
0.54288
0.534224
0.525149
0.515405
0.504611
0.487984
0.466119
0.435902
0.408498
0.398339
0.390676
0.260448
0.202579
0.201912
0.205551
0.217363
0.353204
0.405384
0.406381
0.402084
0.38683
0.379557
0.310405
0.218657
0.234795
0.338226
0.39098
0.39681
0.40139
0.40501
0.408711
0.413404
0.419713
0.427683
0.436133
0.44335
0.448554
0.451714
0.453122
0.453139
0.452095
0.450258
0.447829
0.444949
0.441697
0.438082
0.434009
0.429328
0.423719
0.416435
0.404895
0.392252
0.383346
0.346344
0.310914
0.371209
0.372955
0.373909
0.372565
0.366993
0.34851
0.341518
0.337213
0.332921
0.328497
0.324807
0.32222
0.322269
0.326904
0.331294
0.33517
0.337743
0.338798
0.338643
0.33763
0.336
0.333862
0.331198
0.327832
0.323338
0.316909
0.307456
0.293672
0.274548
0.251108
0.228346
0.212395
0.204429
0.201437
0.200445
0.200134
0.200039
0.200011
0.200003
0.200001
0.2
0.2
0.2
0.2
0.2
0.2
0.2
0.2
0.2
0.2
0.2
0.2
0.2
0.2
0.2
0.2
0.2
0.2
0.2
0.2
0.2
0.2
0.2
0.2
0.2
0.2
0.2
0.2
0.2
0.2
0.2
0.2
0.2
0.2
0.2
0.2
0.2
0.2
0.2
0.2
0.2
0.643912
0.640227
0.634892
0.628031
0.619923
0.611008
0.601754
0.592466
0.583299
0.574274
0.565265
0.55638
0.547271
0.537575
0.526861
0.517115
0.506479
0.494364
0.478096
0.448836
0.421353
0.386406
0.375674
0.267958
0.202828
0.200408
0.200018
0.20001
0.200027
0.200106
0.202354
0.316527
0.387236
0.381941
0.363871
0.223506
0.20022
0.200044
0.2002
0.202812
0.334231
0.386919
0.388994
0.389721
0.390795
0.393359
0.398723
0.408259
0.420756
0.431458
0.439097
0.443864
0.446276
0.446858
0.446056
0.444232
0.441665
0.438561
0.435044
0.43112
0.426769
0.421808
0.415842
0.40766
0.392481
0.381213
0.260462
0.20077
0.200656
0.205333
0.27549
0.359349
0.358796
0.348898
0.323307
0.227138
0.200361
0.20507
0.200112
0.20022
0.201716
0.232008
0.312418
0.313316
0.315852
0.317276
0.316812
0.314968
0.312186
0.308668
0.304438
0.29941
0.29339
0.285811
0.275139
0.260543
0.242978
0.225753
0.21275
0.205292
0.201913
0.20063
0.200199
0.200061
0.200018
0.200005
0.200002
0.2
0.2
0.2
0.2
0.2
0.2
0.2
0.2
0.2
0.2
0.2
0.2
0.2
0.2
0.2
0.2
0.2
0.2
0.2
0.2
0.2
0.2
0.2
0.2
0.2
0.2
0.2
0.2
0.2
0.2
0.2
0.2
0.2
0.2
0.2
0.2
0.2
0.2
0.2
0.2
0.2
0.2
0.2
0.63925
0.635084
0.628897
0.620743
0.610993
0.600374
0.589689
0.579299
0.569289
0.559596
0.550081
0.540659
0.530997
0.520741
0.509194
0.495546
0.481907
0.464689
0.429294
0.380388
0.362435
0.343613
0.208945
0.20061
0.200026
0.200003
0.2
0.2
0.2
0.2
0.200016
0.207493
0.271227
0.357419
0.271461
0.202858
0.200018
0.2
0.200001
0.200015
0.204001
0.355805
0.290606
0.254238
0.265377
0.327572
0.367318
0.404048
0.415017
0.424715
0.432379
0.437525
0.440257
0.440947
0.440022
0.43788
0.434876
0.431302
0.427396
0.423142
0.418616
0.413665
0.407904
0.399448
0.38152
0.231291
0.20036
0.200003
0.200002
0.200035
0.200894
0.295817
0.346708
0.319189
0.273784
0.209479
0.200034
0.200017
0.2
0.200001
0.200003
0.200059
0.200493
0.2235
0.303984
0.301647
0.296979
0.290835
0.283398
0.274753
0.265179
0.255427
0.246571
0.238855
0.229233
0.218894
0.210351
0.204869
0.202021
0.20076
0.200263
0.200086
0.200027
0.200008
0.200002
0.200001
0.2
0.2
0.2
0.2
0.2
0.2
0.2
0.2
0.2
0.2
0.2
0.2
0.2
0.2
0.2
0.2
0.2
0.2
0.2
0.2
0.2
0.2
0.2
0.2
0.2
0.2
0.2
0.2
0.2
0.2
0.2
0.2
0.2
0.2
0.2
0.2
0.2
0.2
0.2
0.2
0.2
0.2
0.2
0.2
0.63501
0.63026
0.622909
0.612788
0.600356
0.586953
0.574175
0.562317
0.551291
0.540859
0.530732
0.520625
0.51013
0.498773
0.485783
0.469197
0.445337
0.412928
0.348171
0.30712
0.213839
0.203013
0.200101
0.200005
0.2
0.2
0.2
0.2
0.2
0.2
0.2
0.200067
0.214492
0.334791
0.235631
0.200785
0.200005
0.2
0.2
0.2
0.246362
0.32026
0.218281
0.200879
0.201736
0.257363
0.333726
0.400615
0.411575
0.420571
0.42782
0.432754
0.435259
0.435553
0.433993
0.430981
0.426967
0.422369
0.417877
0.413229
0.408285
0.403072
0.397103
0.388408
0.368843
0.21649
0.200129
0.200001
0.2
0.2
0.200009
0.252137
0.309279
0.226824
0.212855
0.201731
0.200007
0.2
0.2
0.2
0.2
0.2
0.200001
0.200747
0.274918
0.267553
0.257837
0.246939
0.236104
0.226472
0.218774
0.213407
0.210524
0.209932
0.206813
0.203694
0.20172
0.200721
0.20028
0.200102
0.200035
0.200011
0.200004
0.200001
0.2
0.2
0.2
0.2
0.2
0.2
0.2
0.2
0.2
0.2
0.2
0.2
0.2
0.2
0.2
0.2
0.2
0.2
0.2
0.2
0.2
0.2
0.2
0.2
0.2
0.2
0.2
0.2
0.2
0.2
0.2
0.2
0.2
0.2
0.2
0.2
0.2
0.2
0.2
0.2
0.2
0.2
0.2
0.2
0.2
0.2
0.631166
0.625801
0.616965
0.603791
0.586528
0.567776
0.551573
0.53762
0.52553
0.514453
0.503659
0.492614
0.480675
0.466994
0.450208
0.426983
0.387156
0.305464
0.226749
0.201995
0.200115
0.20004
0.200001
0.2
0.2
0.2
0.2
0.2
0.2
0.2
0.2
0.200007
0.201269
0.296176
0.20675
0.200019
0.2
0.2
0.2
0.2
0.222255
0.268574
0.201094
0.200015
0.200015
0.218308
0.295622
0.398883
0.409513
0.418083
0.42486
0.429263
0.43108
0.43038
0.427318
0.422112
0.415363
0.385395
0.376048
0.370001
0.364104
0.359438
0.358908
0.355935
0.347083
0.219558
0.200194
0.200001
0.2
0.2
0.2
0.22191
0.274499
0.200588
0.200131
0.200214
0.200015
0.2
0.2
0.2
0.2
0.2
0.2
0.200003
0.200079
0.200585
0.201333
0.200562
0.200438
0.200477
0.200333
0.200219
0.200387
0.202892
0.201441
0.200625
0.200251
0.200096
0.200035
0.200012
0.200004
0.200001
0.2
0.2
0.2
0.2
0.2
0.2
0.2
0.2
0.2
0.2
0.2
0.2
0.2
0.2
0.2
0.2
0.2
0.2
0.2
0.2
0.2
0.2
0.2
0.2
0.2
0.2
0.2
0.2
0.2
0.2
0.2
0.2
0.2
0.2
0.2
0.2
0.2
0.2
0.2
0.2
0.2
0.2
0.2
0.2
0.2
0.2
0.2
0.2
0.627712
0.621899
0.611493
0.593072
0.562029
0.520003
0.485617
0.456602
0.475879
0.470726
0.459911
0.447868
0.433718
0.415498
0.390951
0.352044
0.288935
0.212609
0.200318
0.200026
0.200001
0.2
0.2
0.2
0.2
0.2
0.2
0.2
0.2
0.2
0.2
0.2
0.200017
0.260057
0.200848
0.200001
0.2
0.2
0.2
0.2
0.20646
0.217646
0.200017
0.2
0.2
0.20336
0.314319
0.398252
0.408568
0.416633
0.422702
0.426177
0.426695
0.424055
0.417932
0.396461
0.369732
0.333828
0.231444
0.20972
0.220528
0.239188
0.329854
0.330957
0.33204
0.234267
0.200451
0.200003
0.2
0.2
0.2
0.206017
0.234678
0.200736
0.200001
0.20001
0.200001
0.2
0.2
0.2
0.2
0.2
0.2
0.2
0.2
0.200003
0.200007
0.200003
0.200002
0.200002
0.200001
0.200001
0.200001
0.200009
0.200004
0.200002
0.200001
0.2
0.2
0.2
0.2
0.2
0.2
0.2
0.2
0.2
0.2
0.2
0.2
0.2
0.2