/*--------------------------------*- C++ -*----------------------------------*\
| =========                 |                                                 |
| \\      /  F ield         | OpenFOAM: The Open Source CFD Toolbox           |
|  \\    /   O peration     | Version:  1.6                                   |
|   \\  /    A nd           | Web:      www.OpenFOAM.org                      |
|    \\/     M anipulation  |                                                 |
\*---------------------------------------------------------------------------*/
FoamFile
{
    version     2.0;
    format      ascii;
    class       volScalarField;
    location    "0.9";
    object      T;
}
// * * * * * * * * * * * * * * * * * * * * * * * * * * * * * * * * * * * * * //

dimensions      [0 0 0 0 0 0 0];

internalField   nonuniform List<scalar> 
400
(
4.99314
7.7117
8.62713
9.01618
9.21668
9.33385
9.40689
9.45291
9.48025
9.49304
9.49304
9.48025
9.45291
9.40688
9.33385
9.21668
9.01617
8.62712
7.7117
4.99314
2.24713
4.93825
6.40775
7.23708
7.73337
8.04567
8.24766
8.37743
8.4553
8.49193
8.49193
8.4553
8.37743
8.24766
8.04566
7.73336
7.23707
6.40774
4.93825
2.24712
1.30425
3.38642
4.82855
5.79102
6.43404
6.86779
7.16068
7.35385
7.47159
7.52744
7.52744
7.47159
7.35385
7.16067
6.86779
6.43404
5.79101
4.82854
3.38641
1.30424
0.887673
2.47465
3.72902
4.66439
5.344
5.83079
6.1734
6.40571
6.54979
6.61879
6.61879
6.5498
6.40571
6.1734
5.83079
5.34399
4.66438
3.72901
2.47463
0.887669
0.659473
1.89546
2.94848
3.79352
4.44677
4.93798
5.29642
5.54578
5.70309
5.77914
5.77915
5.70309
5.54579
5.29643
4.93798
4.44677
3.79352
2.94847
1.89546
0.659469
0.514227
1.49925
2.37592
3.11445
3.7116
4.17793
4.52854
4.77793
4.93765
5.01556
5.01556
4.93765
4.77793
4.52855
4.17794
3.7116
3.11445
2.37592
1.49925
0.514224
0.412409
1.2114
1.9415
2.57677
3.10725
3.53361
3.8619
4.09973
4.25404
4.32989
4.32989
4.25405
4.09974
3.8619
3.53362
3.10726
2.57677
1.9415
1.2114
0.412407
0.336418
0.992442
1.60191
2.1439
2.60702
2.98737
3.28571
3.50507
3.64891
3.72007
3.72007
3.64892
3.50508
3.28572
2.98737
2.60703
2.1439
1.6019
0.992438
0.336417
0.277241
0.820046
1.32978
1.7899
2.18959
2.52314
2.78853
2.98593
3.11649
3.1814
3.1814
3.11649
2.98594
2.78853
2.52314
2.18959
1.7899
1.32978
0.820042
0.277239
0.229738
0.680718
1.10729
1.49633
1.8383
2.12707
2.35933
2.53366
2.64972
2.70766
2.70766
2.64972
2.53366
2.35934
2.12708
1.8383
1.49634
1.10729
0.680715
0.229737
0.190731
0.5658
0.922328
1.24986
1.5402
1.78754
1.98809
2.13965
2.24108
2.29188
2.29188
2.24108
2.13965
1.98809
1.78754
1.5402
1.24985
0.922324
0.565797
0.19073
0.158116
0.469427
0.766369
1.04056
1.28512
1.4948
1.66584
1.79577
1.88308
1.92692
1.92691
1.88308
1.79577
1.66584
1.49479
1.28512
1.04056
0.766365
0.469423
0.158115
0.130422
0.387424
0.633161
0.860906
1.06494
1.24069
1.38471
1.49454
1.56856
1.6058
1.6058
1.56856
1.49454
1.38471
1.24069
1.06494
0.860904
0.633159
0.387422
0.130421
0.106568
0.316691
0.517951
0.704965
0.873048
1.01833
1.13777
1.22913
1.29084
1.32192
1.32192
1.29083
1.22913
1.13777
1.01833
0.873045
0.704964
0.517949
0.31669
0.106568
0.0857248
0.254824
0.41699
0.567959
0.703962
0.821808
0.918933
0.993377
1.04374
1.06914
1.06914
1.04374
0.993372
0.918928
0.821805
0.70396
0.56796
0.41699
0.254824
0.0857254
0.0672321
0.199893
0.327226
0.445927
0.553036
0.646013
0.722777
0.781707
0.821626
0.84177
0.841768
0.821622
0.781703
0.722774
0.646012
0.553037
0.44593
0.32723
0.199896
0.0672338
0.0505427
0.150294
0.246097
0.33549
0.416247
0.486437
0.54446
0.589052
0.619286
0.634551
0.63455
0.619283
0.589051
0.54446
0.486439
0.416251
0.335496
0.246104
0.1503
0.0505455
0.0351883
0.104646
0.171382
0.233692
0.290028
0.339034
0.379579
0.410762
0.431917
0.442603
0.442602
0.431916
0.410762
0.37958
0.339037
0.290033
0.2337
0.171391
0.104653
0.0351912
0.0207538
0.0617231
0.101097
0.137874
0.171141
0.200096
0.224064
0.242506
0.255022
0.261346
0.261346
0.255021
0.242507
0.224066
0.200099
0.171147
0.137882
0.101105
0.0617286
0.0207559
0.00685847
0.0203986
0.0334131
0.0455716
0.0565721
0.0661492
0.0740789
0.0801817
0.0843241
0.0864176
0.0864176
0.084324
0.0801824
0.0740803
0.066151
0.0565749
0.0455753
0.0334165
0.020401
0.00685947
)
;

boundaryField
{
    left
    {
        type            fixedValue;
        value           uniform 0;
    }
    down
    {
        type            fixedValue;
        value           uniform 10;
    }
    up
    {
        type            fixedValue;
        value           uniform 0;
    }
    right
    {
        type            fixedValue;
        value           uniform 0;
    }
    frontAndBack
    {
        type            empty;
    }
}


// ************************************************************************* //
