/*--------------------------------*- C++ -*----------------------------------*\
| =========                 |                                                 |
| \\      /  F ield         | OpenFOAM: The Open Source CFD Toolbox           |
|  \\    /   O peration     | Version:  2.1.0                                 |
|   \\  /    A nd           | Web:      www.OpenFOAM.org                      |
|    \\/     M anipulation  |                                                 |
\*---------------------------------------------------------------------------*/
FoamFile
{
    version     2.0;
    format      ascii;
    class       volScalarField;
    location    "16060";
    object      kr_o;
}
// * * * * * * * * * * * * * * * * * * * * * * * * * * * * * * * * * * * * * //

dimensions      [0 0 0 0 0 0 0];

internalField   nonuniform List<scalar> 
15000
(
2.83375e-09
7.28368e-06
0.000207901
0.0011445
0.00306895
0.00580363
0.00911967
0.0128615
0.0169271
0.0212422
0.0257475
0.0303932
0.0351354
0.0399369
0.0447654
0.0495938
0.0544008
0.0591696
0.0638895
0.0685522
0.0731475
0.0776671
0.0821051
0.0864573
0.0907216
0.0948977
0.0989871
0.102993
0.106919
0.110771
0.114552
0.118269
0.121925
0.125526
0.129078
0.132587
0.136058
0.139496
0.142906
0.146294
0.149665
0.153023
0.156373
0.15972
0.163067
0.166419
0.169779
0.173152
0.176539
0.179944
0.183368
0.186815
0.190286
0.193783
0.197308
0.200862
0.204447
0.208068
0.211726
0.215427
0.219178
0.222986
0.226862
0.230817
0.234869
0.239035
0.243343
0.247823
0.252514
0.257468
0.262752
0.268461
0.274727
0.281743
0.289803
0.299369
0.311196
0.326577
0.347762
0.378467
0.422933
0.478255
0.525326
0.549902
0.558785
0.561467
0.56222
0.562426
0.56248
0.562495
0.562499
0.5625
0.5625
0.5625
0.5625
0.5625
0.5625
0.5625
0.5625
0.5625
0.5625
0.5625
0.5625
0.5625
0.5625
0.5625
0.5625
0.5625
0.5625
0.5625
0.5625
0.5625
0.5625
0.5625
0.5625
0.5625
0.5625
0.5625
0.5625
0.5625
0.5625
0.5625
0.5625
0.5625
0.5625
0.5625
0.5625
0.5625
0.5625
0.5625
0.5625
0.5625
0.5625
0.5625
0.5625
0.5625
0.5625
0.5625
0.5625
0.5625
0.5625
0.5625
0.5625
0.5625
0.5625
0.5625
0.5625
0.5625
0.5625
0.5625
7.34056e-06
9.92445e-05
0.000627124
0.00198628
0.00419158
0.00706266
0.0104353
0.0141951
0.0182603
0.0225666
0.0270599
0.0316926
0.0364227
0.0412137
0.0460341
0.0508574
0.0556623
0.0604325
0.0651568
0.0698254
0.0744275
0.0789544
0.0833998
0.0877588
0.0920289
0.0962097
0.100303
0.104313
0.108242
0.112096
0.115878
0.119593
0.123247
0.126845
0.130393
0.133898
0.137363
0.140795
0.144198
0.147579
0.150942
0.154292
0.157635
0.160973
0.164313
0.167659
0.171015
0.174384
0.177769
0.181174
0.184602
0.188056
0.191537
0.195047
0.198588
0.202162
0.205772
0.209422
0.213115
0.216857
0.220656
0.224519
0.228458
0.232487
0.236622
0.240886
0.245307
0.24992
0.254768
0.259908
0.265419
0.271407
0.278029
0.28551
0.294193
0.304626
0.317715
0.335009
0.359164
0.394221
0.443047
0.497259
0.53628
0.554033
0.560039
0.561816
0.562314
0.56245
0.562487
0.562497
0.562499
0.5625
0.5625
0.5625
0.5625
0.5625
0.5625
0.5625
0.5625
0.5625
0.5625
0.5625
0.5625
0.5625
0.5625
0.5625
0.5625
0.5625
0.5625
0.5625
0.5625
0.5625
0.5625
0.5625
0.5625
0.5625
0.5625
0.5625
0.5625
0.5625
0.5625
0.5625
0.5625
0.5625
0.5625
0.5625
0.5625
0.5625
0.5625
0.5625
0.5625
0.5625
0.5625
0.5625
0.5625
0.5625
0.5625
0.5625
0.5625
0.5625
0.5625
0.5625
0.5625
0.5625
0.5625
0.5625
0.5625
0.5625
0.5625
0.5625
0.000204064
0.000621224
0.0016523
0.00342405
0.00585802
0.0088294
0.0122348
0.0159948
0.020045
0.0243299
0.0288
0.0334104
0.0381207
0.0428952
0.0477028
0.052517
0.0573167
0.0620855
0.0668119
0.0714841
0.0760905
0.0806215
0.0850698
0.0894302
0.0937002
0.0978795
0.10197
0.105975
0.109898
0.113743
0.117515
0.12122
0.124861
0.128446
0.131981
0.13547
0.138919
0.142333
0.145719
0.149081
0.152426
0.155758
0.159081
0.162403
0.165726
0.169057
0.1724
0.175758
0.179135
0.182536
0.185963
0.189419
0.192906
0.196426
0.199981
0.203575
0.207209
0.210889
0.214618
0.218402
0.222249
0.226167
0.230169
0.234269
0.238487
0.242848
0.247381
0.252125
0.257129
0.262459
0.268202
0.274481
0.281476
0.28945
0.298813
0.310222
0.324775
0.34436
0.372126
0.412192
0.464567
0.514748
0.544935
0.55705
0.560934
0.562065
0.562382
0.562468
0.562492
0.562498
0.562499
0.5625
0.5625
0.5625
0.5625
0.5625
0.5625
0.5625
0.5625
0.5625
0.5625
0.5625
0.5625
0.5625
0.5625
0.5625
0.5625
0.5625
0.5625
0.5625
0.5625
0.5625
0.5625
0.5625
0.5625
0.5625
0.5625
0.5625
0.5625
0.5625
0.5625
0.5625
0.5625
0.5625
0.5625
0.5625
0.5625
0.5625
0.5625
0.5625
0.5625
0.5625
0.5625
0.5625
0.5625
0.5625
0.5625
0.5625
0.5625
0.5625
0.5625
0.5625
0.5625
0.5625
0.5625
0.5625
0.5625
0.5625
0.5625
0.5625
0.00111789
0.00195551
0.00339928
0.00544351
0.00801807
0.0110469
0.0144638
0.0182116
0.022238
0.0264946
0.0309356
0.0355188
0.0402053
0.0449601
0.0497524
0.0545559
0.0593494
0.0641169
0.0688456
0.073521
0.0781305
0.0826634
0.0871118
0.0914699
0.0957353
0.0999076
0.103989
0.107981
0.11189
0.115719
0.119473
0.123157
0.126777
0.13034
0.13385
0.137313
0.140735
0.144121
0.147477
0.15081
0.154125
0.157426
0.160721
0.164014
0.167311
0.170618
0.17394
0.17728
0.180643
0.184033
0.187454
0.190908
0.194397
0.197926
0.201495
0.205108
0.208768
0.212479
0.216245
0.220072
0.223969
0.227945
0.232013
0.236189
0.240494
0.244954
0.249603
0.254482
0.259647
0.265172
0.27116
0.277751
0.285156
0.293685
0.303831
0.316396
0.332736
0.355176
0.387381
0.432836
0.486597
0.529626
0.551294
0.559128
0.56154
0.562234
0.562428
0.562481
0.562495
0.562499
0.5625
0.5625
0.5625
0.5625
0.5625
0.5625
0.5625
0.5625
0.5625
0.5625
0.5625
0.5625
0.5625
0.5625
0.5625
0.5625
0.5625
0.5625
0.5625
0.5625
0.5625
0.5625
0.5625
0.5625
0.5625
0.5625
0.5625
0.5625
0.5625
0.5625
0.5625
0.5625
0.5625
0.5625
0.5625
0.5625
0.5625
0.5625
0.5625
0.5625
0.5625
0.5625
0.5625
0.5625
0.5625
0.5625
0.5625
0.5625
0.5625
0.5625
0.5625
0.5625
0.5625
0.5625
0.5625
0.5625
0.5625
0.5625
0.5625
0.5625
0.0029869
0.00410642
0.00578083
0.00796705
0.010612
0.0136644
0.0170767
0.0208039
0.0248019
0.0290272
0.0334375
0.0379927
0.0426552
0.0473906
0.0521686
0.056963
0.0617529
0.0665224
0.0712554
0.0759356
0.0805487
0.0850829
0.0895295
0.0938827
0.0981398
0.1023
0.106366
0.11034
0.114228
0.118033
0.12176
0.125415
0.129005
0.132534
0.136009
0.139436
0.142819
0.146166
0.149482
0.152774
0.156047
0.159307
0.162562
0.165816
0.169077
0.172351
0.175642
0.178956
0.182297
0.185671
0.18908
0.192528
0.196018
0.199553
0.203136
0.206768
0.210455
0.214199
0.218005
0.221879
0.22583
0.229867
0.234006
0.238262
0.242659
0.247226
0.252
0.257026
0.262367
0.268108
0.274365
0.281307
0.289181
0.298362
0.309452
0.323449
0.342057
0.368147
0.40573
0.456117
0.507621
0.54127
0.555685
0.560494
0.561933
0.562343
0.562457
0.562489
0.562497
0.562499
0.5625
0.5625
0.5625
0.5625
0.5625
0.5625
0.5625
0.5625
0.5625
0.5625
0.5625
0.5625
0.5625
0.5625
0.5625
0.5625
0.5625
0.5625
0.5625
0.5625
0.5625
0.5625
0.5625
0.5625
0.5625
0.5625
0.5625
0.5625
0.5625
0.5625
0.5625
0.5625
0.5625
0.5625
0.5625
0.5625
0.5625
0.5625
0.5625
0.5625
0.5625
0.5625
0.5625
0.5625
0.5625
0.5625
0.5625
0.5625
0.5625
0.5625
0.5625
0.5625
0.5625
0.5625
0.5625
0.5625
0.5625
0.5625
0.5625
0.5625
0.00562616
0.00688577
0.00866451
0.0109117
0.0135824
0.0166358
0.020033
0.0237357
0.0277044
0.0318995
0.0362813
0.0408115
0.0454535
0.0501737
0.0549419
0.0597326
0.0645256
0.0693028
0.0740445
0.0787327
0.0833514
0.0878879
0.0923326
0.09668
0.100926
0.105071
0.109118
0.113068
0.116927
0.1207
0.124392
0.128009
0.131558
0.135045
0.138476
0.141856
0.14519
0.148486
0.15175
0.154989
0.158208
0.161415
0.164618
0.167823
0.171036
0.174265
0.177516
0.180795
0.184107
0.187457
0.190849
0.194287
0.197776
0.201316
0.204912
0.208565
0.21228
0.21606
0.21991
0.223837
0.227847
0.231954
0.236171
0.240517
0.245017
0.249702
0.254613
0.259801
0.265339
0.271326
0.277897
0.285253
0.293691
0.303672
0.31595
0.331792
0.353372
0.384174
0.427883
0.481076
0.525881
0.549643
0.558549
0.561355
0.562178
0.562411
0.562476
0.562494
0.562498
0.5625
0.5625
0.5625
0.5625
0.5625
0.5625
0.5625
0.5625
0.5625
0.5625
0.5625
0.5625
0.5625
0.5625
0.5625
0.5625
0.5625
0.5625
0.5625
0.5625
0.5625
0.5625
0.5625
0.5625
0.5625
0.5625
0.5625
0.5625
0.5625
0.5625
0.5625
0.5625
0.5625
0.5625
0.5625
0.5625
0.5625
0.5625
0.5625
0.5625
0.5625
0.5625
0.5625
0.5625
0.5625
0.5625
0.5625
0.5625
0.5625
0.5625
0.5625
0.5625
0.5625
0.5625
0.5625
0.5625
0.5625
0.5625
0.5625
0.5625
0.5625
0.00880008
0.0101219
0.0119398
0.0142048
0.0168764
0.0199184
0.023296
0.0269743
0.0309171
0.035087
0.0394466
0.0439588
0.0485878
0.0533006
0.0580678
0.0628648
0.0676709
0.0724638
0.0772209
0.0819225
0.0865511
0.0910934
0.0955388
0.0998808
0.104116
0.108244
0.112266
0.116187
0.120012
0.123744
0.127393
0.130963
0.134463
0.137898
0.141274
0.144597
0.147872
0.151106
0.154306
0.157479
0.160632
0.163773
0.16691
0.170052
0.173205
0.176377
0.179577
0.18281
0.186083
0.189402
0.192771
0.196195
0.199678
0.203223
0.206832
0.210508
0.214255
0.218077
0.221977
0.225963
0.230043
0.234229
0.238536
0.242985
0.247603
0.252423
0.257491
0.262868
0.268637
0.274915
0.281863
0.289723
0.298864
0.309867
0.323699
0.34201
0.367584
0.404373
0.453981
0.505562
0.540081
0.555193
0.56032
0.561874
0.562325
0.562452
0.562487
0.562496
0.562499
0.5625
0.5625
0.5625
0.5625
0.5625
0.5625
0.5625
0.5625
0.5625
0.5625
0.5625
0.5625
0.5625
0.5625
0.5625
0.5625
0.5625
0.5625
0.5625
0.5625
0.5625
0.5625
0.5625
0.5625
0.5625
0.5625
0.5625
0.5625
0.5625
0.5625
0.5625
0.5625
0.5625
0.5625
0.5625
0.5625
0.5625
0.5625
0.5625
0.5625
0.5625
0.5625
0.5625
0.5625
0.5625
0.5625
0.5625
0.5625
0.5625
0.5625
0.5625
0.5625
0.5625
0.5625
0.5625
0.5625
0.5625
0.5625
0.5625
0.5625
0.5625
0.0123461
0.0136933
0.0155208
0.0177841
0.0204457
0.0234723
0.0268316
0.0304906
0.034415
0.0385692
0.0429171
0.0474222
0.05205
0.056768
0.061548
0.0663661
0.0711975
0.0760166
0.0807987
0.0855223
0.0901686
0.0947231
0.0991743
0.103515
0.10774
0.11185
0.115846
0.119732
0.123514
0.127199
0.130795
0.134311
0.137753
0.141127
0.144439
0.147695
0.150899
0.15406
0.157183
0.160276
0.163348
0.166408
0.169465
0.172528
0.175606
0.178708
0.181843
0.185018
0.188242
0.19152
0.194859
0.198263
0.201738
0.205286
0.208909
0.212611
0.216395
0.220265
0.224225
0.228281
0.232444
0.236724
0.241138
0.245709
0.250467
0.255447
0.260704
0.266307
0.272356
0.278989
0.286407
0.294909
0.304962
0.317324
0.333272
0.354995
0.385981
0.42981
0.482704
0.52674
0.549911
0.5586
0.561357
0.562174
0.562409
0.562475
0.562493
0.562498
0.5625
0.5625
0.5625
0.5625
0.5625
0.5625
0.5625
0.5625
0.5625
0.5625
0.5625
0.5625
0.5625
0.5625
0.5625
0.5625
0.5625
0.5625
0.5625
0.5625
0.5625
0.5625
0.5625
0.5625
0.5625
0.5625
0.5625
0.5625
0.5625
0.5625
0.5625
0.5625
0.5625
0.5625
0.5625
0.5625
0.5625
0.5625
0.5625
0.5625
0.5625
0.5625
0.5625
0.5625
0.5625
0.5625
0.5625
0.5625
0.5625
0.5625
0.5625
0.5625
0.5625
0.5625
0.5625
0.5625
0.5625
0.5625
0.5625
0.5625
0.5625
0.5625
0.0161552
0.0175119
0.019338
0.0215939
0.0242448
0.0272598
0.0306083
0.0342583
0.0381769
0.0423295
0.0466804
0.0511943
0.0558373
0.0605786
0.0653911
0.0702481
0.0751205
0.07998
0.0848004
0.0895586
0.0942344
0.0988118
0.103278
0.107623
0.111844
0.115936
0.119904
0.12375
0.127484
0.131114
0.13465
0.138102
0.141477
0.144782
0.148021
0.151199
0.154321
0.157395
0.160426
0.163424
0.166398
0.169359
0.172318
0.175284
0.17827
0.181285
0.184339
0.187442
0.190602
0.193829
0.197128
0.200507
0.20397
0.207519
0.211158
0.214891
0.218719
0.222646
0.226678
0.23082
0.235083
0.239478
0.244025
0.248746
0.253673
0.258852
0.264342
0.270226
0.276626
0.283714
0.291739
0.301089
0.312375
0.326618
0.345563
0.372121
0.410221
0.460555
0.510624
0.54248
0.555997
0.560546
0.561933
0.562339
0.562455
0.562488
0.562497
0.562499
0.5625
0.5625
0.5625
0.5625
0.5625
0.5625
0.5625
0.5625
0.5625
0.5625
0.5625
0.5625
0.5625
0.5625
0.5625
0.5625
0.5625
0.5625
0.5625
0.5625
0.5625
0.5625
0.5625
0.5625
0.5625
0.5625
0.5625
0.5625
0.5625
0.5625
0.5625
0.5625
0.5625
0.5625
0.5625
0.5625
0.5625
0.5625
0.5625
0.5625
0.5625
0.5625
0.5625
0.5625
0.5625
0.5625
0.5625
0.5625
0.5625
0.5625
0.5625
0.5625
0.5625
0.5625
0.5625
0.5625
0.5625
0.5625
0.5625
0.5625
0.5625
0.5625
0.0201465
0.0215077
0.023332
0.0255838
0.0282315
0.0312457
0.0345967
0.0382539
0.0421846
0.0463546
0.050729
0.0552732
0.0599545
0.064744
0.0696129
0.0745296
0.0794624
0.0843812
0.0892584
0.0940692
0.0987924
0.10341
0.107906
0.112269
0.116493
0.120574
0.124513
0.128317
0.131996
0.135562
0.139028
0.142406
0.145705
0.148931
0.152087
0.155177
0.158205
0.161177
0.164101
0.166984
0.169841
0.172682
0.175521
0.178369
0.181241
0.184147
0.1871
0.190111
0.193191
0.196352
0.199601
0.202946
0.206392
0.209941
0.213599
0.217367
0.221249
0.225247
0.229368
0.233617
0.238005
0.242546
0.247258
0.25217
0.257315
0.262745
0.268534
0.274783
0.281643
0.289331
0.298174
0.308688
0.321719
0.338694
0.362042
0.395438
0.441675
0.49391
0.533343
0.552482
0.5594
0.561582
0.562234
0.562424
0.562479
0.562494
0.562498
0.5625
0.5625
0.5625
0.5625
0.5625
0.5625
0.5625
0.5625
0.5625
0.5625
0.5625
0.5625
0.5625
0.5625
0.5625
0.5625
0.5625
0.5625
0.5625
0.5625
0.5625
0.5625
0.5625
0.5625
0.5625
0.5625
0.5625
0.5625
0.5625
0.5625
0.5625
0.5625
0.5625
0.5625
0.5625
0.5625
0.5625
0.5625
0.5625
0.5625
0.5625
0.5625
0.5625
0.5625
0.5625
0.5625
0.5625
0.5625
0.5625
0.5625
0.5625
0.5625
0.5625
0.5625
0.5625
0.5625
0.5625
0.5625
0.5625
0.5625
0.5625
0.5625
0.5625
0.0242546
0.025622
0.0274502
0.0297083
0.0323667
0.0353972
0.0387711
0.0424577
0.0464245
0.0506375
0.0550624
0.0596655
0.0644161
0.0692843
0.0742365
0.0792381
0.0842562
0.089259
0.0942183
0.0991083
0.103906
0.108589
0.11314
0.117544
0.121789
0.125868
0.129783
0.133541
0.137156
0.140646
0.144029
0.147322
0.150534
0.153671
0.156735
0.159727
0.162649
0.165503
0.168299
0.171047
0.173761
0.176455
0.179146
0.181848
0.184577
0.187347
0.190172
0.193067
0.196046
0.199122
0.202306
0.205605
0.209026
0.212575
0.216255
0.220066
0.224013
0.228101
0.232333
0.236718
0.241267
0.245997
0.250927
0.256089
0.261524
0.267292
0.273483
0.280225
0.287708
0.296222
0.306216
0.318417
0.334043
0.355171
0.385107
0.427375
0.479111
0.523774
0.548379
0.557983
0.561133
0.562097
0.562383
0.562467
0.562491
0.562497
0.562499
0.5625
0.5625
0.5625
0.5625
0.5625
0.5625
0.5625
0.5625
0.5625
0.5625
0.5625
0.5625
0.5625
0.5625
0.5625
0.5625
0.5625
0.5625
0.5625
0.5625
0.5625
0.5625
0.5625
0.5625
0.5625
0.5625
0.5625
0.5625
0.5625
0.5625
0.5625
0.5625
0.5625
0.5625
0.5625
0.5625
0.5625
0.5625
0.5625
0.5625
0.5625
0.5625
0.5625
0.5625
0.5625
0.5625
0.5625
0.5625
0.5625
0.5625
0.5625
0.5625
0.5625
0.5625
0.5625
0.5625
0.5625
0.5625
0.5625
0.5625
0.5625
0.5625
0.5625
0.0284232
0.0298021
0.0316455
0.0339258
0.036615
0.0396859
0.0431096
0.0468551
0.0508899
0.0551795
0.0596901
0.06439
0.0692479
0.0742285
0.0792955
0.0844132
0.0895479
0.0946686
0.0997463
0.104754
0.109665
0.114456
0.119103
0.123583
0.12788
0.13198
0.135881
0.139591
0.143131
0.146527
0.149809
0.152999
0.156111
0.159149
0.162113
0.164998
0.167799
0.170518
0.173161
0.175743
0.17828
0.180792
0.183299
0.185818
0.188367
0.190964
0.193626
0.196371
0.199217
0.202181
0.205277
0.208516
0.211906
0.215452
0.219155
0.223021
0.227052
0.231251
0.235626
0.240187
0.244949
0.249932
0.255161
0.260671
0.266514
0.272756
0.279514
0.286953
0.295326
0.305037
0.316739
0.331522
0.351239
0.378892
0.418139
0.46829
0.515632
0.544462
0.556534
0.560652
0.561943
0.562335
0.562452
0.562486
0.562496
0.562499
0.5625
0.5625
0.5625
0.5625
0.5625
0.5625
0.5625
0.5625
0.5625
0.5625
0.5625
0.5625
0.5625
0.5625
0.5625
0.5625
0.5625
0.5625
0.5625
0.5625
0.5625
0.5625
0.5625
0.5625
0.5625
0.5625
0.5625
0.5625
0.5625
0.5625
0.5625
0.5625
0.5625
0.5625
0.5625
0.5625
0.5625
0.5625
0.5625
0.5625
0.5625
0.5625
0.5625
0.5625
0.5625
0.5625
0.5625
0.5625
0.5625
0.5625
0.5625
0.5625
0.5625
0.5625
0.5625
0.5625
0.5625
0.5625
0.5625
0.5625
0.5625
0.5625
0.5625
0.5625
0.0326016
0.0340005
0.0358745
0.0381985
0.0409455
0.0440882
0.047597
0.0514403
0.0555841
0.0599939
0.0646368
0.0694798
0.0744861
0.0796179
0.084838
0.0901112
0.0954046
0.100689
0.105935
0.111115
0.116202
0.121164
0.125973
0.130595
0.135002
0.139167
0.143078
0.146741
0.150186
0.153459
0.156606
0.159666
0.16266
0.165589
0.168447
0.171217
0.173884
0.176444
0.178904
0.181278
0.183591
0.18587
0.188139
0.190423
0.19274
0.195112
0.19756
0.200106
0.202775
0.205589
0.208568
0.211725
0.21507
0.218608
0.222342
0.226275
0.230411
0.234754
0.239317
0.244114
0.249167
0.254503
0.260181
0.26627
0.272778
0.279724
0.287264
0.295707
0.305406
0.316954
0.331369
0.350385
0.376835
0.414304
0.46293
0.510857
0.541826
0.55546
0.560268
0.561812
0.562291
0.562437
0.562481
0.562495
0.562498
0.5625
0.5625
0.5625
0.5625
0.5625
0.5625
0.5625
0.5625
0.5625
0.5625
0.5625
0.5625
0.5625
0.5625
0.5625
0.5625
0.5625
0.5625
0.5625
0.5625
0.5625
0.5625
0.5625
0.5625
0.5625
0.5625
0.5625
0.5625
0.5625
0.5625
0.5625
0.5625
0.5625
0.5625
0.5625
0.5625
0.5625
0.5625
0.5625
0.5625
0.5625
0.5625
0.5625
0.5625
0.5625
0.5625
0.5625
0.5625
0.5625
0.5625
0.5625
0.5625
0.5625
0.5625
0.5625
0.5625
0.5625
0.5625
0.5625
0.5625
0.5625
0.5625
0.5625
0.5625
0.5625
0.0367441
0.038174
0.0400984
0.0424936
0.0453327
0.0485879
0.052228
0.0562194
0.060526
0.0651129
0.0699443
0.0749809
0.0801831
0.0855126
0.090933
0.0964119
0.10192
0.10743
0.112916
0.118352
0.123706
0.128946
0.134032
0.139055
0.143982
0.148592
0.152619
0.156221
0.159498
0.162535
0.165428
0.168248
0.171033
0.173788
0.176487
0.179093
0.18157
0.1839
0.186087
0.188153
0.190133
0.192069
0.193998
0.195948
0.197943
0.200002
0.202151
0.204418
0.206839
0.209442
0.212255
0.215296
0.218575
0.222097
0.225865
0.229882
0.234153
0.238687
0.243501
0.248622
0.254085
0.259954
0.266388
0.273406
0.281056
0.289325
0.298158
0.308142
0.319911
0.334449
0.353471
0.379756
0.416735
0.464314
0.511044
0.541525
0.555205
0.560135
0.561753
0.562267
0.562428
0.562478
0.562493
0.562498
0.562499
0.5625
0.5625
0.5625
0.5625
0.5625
0.5625
0.5625
0.5625
0.5625
0.5625
0.5625
0.5625
0.5625
0.5625
0.5625
0.5625
0.5625
0.5625
0.5625
0.5625
0.5625
0.5625
0.5625
0.5625
0.5625
0.5625
0.5625
0.5625
0.5625
0.5625
0.5625
0.5625
0.5625
0.5625
0.5625
0.5625
0.5625
0.5625
0.5625
0.5625
0.5625
0.5625
0.5625
0.5625
0.5625
0.5625
0.5625
0.5625
0.5625
0.5625
0.5625
0.5625
0.5625
0.5625
0.5625
0.5625
0.5625
0.5625
0.5625
0.5625
0.5625
0.5625
0.5625
0.5625
0.5625
0.0408087
0.0422833
0.0442826
0.0467834
0.0497588
0.0531793
0.0570112
0.0612165
0.0657567
0.0705901
0.0756729
0.080962
0.0864164
0.0919997
0.09768
0.10343
0.109227
0.115051
0.120881
0.126697
0.132471
0.138167
0.144225
0.150494
0.156772
0.162797
0.168086
0.171628
0.174546
0.177024
0.179306
0.18156
0.183877
0.186268
0.188671
0.190983
0.193107
0.194993
0.196641
0.198086
0.199397
0.20066
0.201943
0.203285
0.204708
0.206229
0.207874
0.20968
0.211694
0.213958
0.216506
0.219359
0.222527
0.226012
0.229814
0.233934
0.238379
0.243166
0.248325
0.253905
0.259975
0.266776
0.274425
0.283121
0.292975
0.303871
0.315393
0.328054
0.343418
0.363251
0.390377
0.42782
0.474104
0.517138
0.544063
0.556004
0.560349
0.561804
0.562277
0.562429
0.562477
0.562493
0.562498
0.562499
0.5625
0.5625
0.5625
0.5625
0.5625
0.5625
0.5625
0.5625
0.5625
0.5625
0.5625
0.5625
0.5625
0.5625
0.5625
0.5625
0.5625
0.5625
0.5625
0.5625
0.5625
0.5625
0.5625
0.5625
0.5625
0.5625
0.5625
0.5625
0.5625
0.5625
0.5625
0.5625
0.5625
0.5625
0.5625
0.5625
0.5625
0.5625
0.5625
0.5625
0.5625
0.5625
0.5625
0.5625
0.5625
0.5625
0.5625
0.5625
0.5625
0.5625
0.5625
0.5625
0.5625
0.5625
0.5625
0.5625
0.5625
0.5625
0.5625
0.5625
0.5625
0.5625
0.5625
0.5625
0.5625
0.5625
0.0447574
0.0462933
0.0483974
0.0510474
0.0542162
0.0578721
0.0619763
0.0664842
0.0713452
0.0765056
0.0819143
0.0875255
0.0933
0.0992068
0.105223
0.11133
0.117518
0.123781
0.130114
0.136509
0.142957
0.150217
0.15817
0.166852
0.176342
0.185955
0.194938
0.199505
0.201665
0.20272
0.203456
0.204327
0.20559
0.207291
0.20927
0.211218
0.212817
0.213928
0.21453
0.214691
0.214567
0.214385
0.214309
0.214405
0.214686
0.215152
0.215821
0.216744
0.21799
0.219621
0.221681
0.224188
0.22714
0.230531
0.234348
0.238586
0.243254
0.248379
0.254021
0.260275
0.267296
0.275584
0.285494
0.297567
0.312172
0.329061
0.347096
0.36588
0.388629
0.417638
0.454548
0.495408
0.529339
0.549103
0.557707
0.560875
0.56196
0.562322
0.562441
0.562481
0.562494
0.562498
0.562499
0.5625
0.5625
0.5625
0.5625
0.5625
0.5625
0.5625
0.5625
0.5625
0.5625
0.5625
0.5625
0.5625
0.5625
0.5625
0.5625
0.5625
0.5625
0.5625
0.5625
0.5625
0.5625
0.5625
0.5625
0.5625
0.5625
0.5625
0.5625
0.5625
0.5625
0.5625
0.5625
0.5625
0.5625
0.5625
0.5625
0.5625
0.5625
0.5625
0.5625
0.5625
0.5625
0.5625
0.5625
0.5625
0.5625
0.5625
0.5625
0.5625
0.5625
0.5625
0.5625
0.5625
0.5625
0.5625
0.5625
0.5625
0.5625
0.5625
0.5625
0.5625
0.5625
0.5625
0.5625
0.5625
0.5625
0.5625
0.048573
0.0502007
0.0524527
0.0553051
0.0587267
0.0626781
0.0671112
0.0720257
0.0773985
0.082986
0.0888103
0.0948267
0.101003
0.107321
0.11377
0.120351
0.127078
0.133968
0.141052
0.148366
0.156705
0.166678
0.178623
0.192557
0.209062
0.225433
0.243481
0.250044
0.250756
0.248075
0.245015
0.242695
0.241811
0.242551
0.244532
0.248075
0.249298
0.249249
0.247886
0.245323
0.241946
0.23851
0.235487
0.233
0.230982
0.229346
0.228071
0.227225
0.226937
0.227317
0.228422
0.230251
0.232773
0.235941
0.239717
0.244077
0.249029
0.254623
0.26097
0.268272
0.276974
0.287852
0.302057
0.321003
0.345626
0.375422
0.408487
0.440063
0.471038
0.4996
0.524979
0.543809
0.55465
0.559577
0.561479
0.562152
0.562382
0.56246
0.562486
0.562495
0.562498
0.562499
0.5625
0.5625
0.5625
0.5625
0.5625
0.5625
0.5625
0.5625
0.5625
0.5625
0.5625
0.5625
0.5625
0.5625
0.5625
0.5625
0.5625
0.5625
0.5625
0.5625
0.5625
0.5625
0.5625
0.5625
0.5625
0.5625
0.5625
0.5625
0.5625
0.5625
0.5625
0.5625
0.5625
0.5625
0.5625
0.5625
0.5625
0.5625
0.5625
0.5625
0.5625
0.5625
0.5625
0.5625
0.5625
0.5625
0.5625
0.5625
0.5625
0.5625
0.5625
0.5625
0.5625
0.5625
0.5625
0.5625
0.5625
0.5625
0.5625
0.5625
0.5625
0.5625
0.5625
0.5625
0.5625
0.5625
0.5625
0.5625
0.0522343
0.0539955
0.0564578
0.0595965
0.0633754
0.0677422
0.072631
0.0780154
0.0838283
0.089854
0.096568
0.103101
0.10978
0.116618
0.123632
0.130855
0.13834
0.14616
0.154421
0.163318
0.175396
0.19123
0.211662
0.234048
0.261923
0.283424
0.312178
0.318962
0.318665
0.308892
0.299814
0.292847
0.289381
0.290252
0.298623
0.31295
0.318156
0.317601
0.313244
0.305024
0.293714
0.282524
0.273078
0.265415
0.258998
0.253356
0.248296
0.243924
0.240552
0.238441
0.237679
0.238209
0.239903
0.242623
0.246257
0.25074
0.256072
0.262346
0.269787
0.278826
0.290354
0.306077
0.328592
0.360738
0.403218
0.4517
0.495586
0.523604
0.538717
0.547413
0.554131
0.558527
0.560882
0.561914
0.5623
0.562432
0.562477
0.562492
0.562497
0.562499
0.5625
0.5625
0.5625
0.5625
0.5625
0.5625
0.5625
0.5625
0.5625
0.5625
0.5625
0.5625
0.5625
0.5625
0.5625
0.5625
0.5625
0.5625
0.5625
0.5625
0.5625
0.5625
0.5625
0.5625
0.5625
0.5625
0.5625
0.5625
0.5625
0.5625
0.5625
0.5625
0.5625
0.5625
0.5625
0.5625
0.5625
0.5625
0.5625
0.5625
0.5625
0.5625
0.5625
0.5625
0.5625
0.5625
0.5625
0.5625
0.5625
0.5625
0.5625
0.5625
0.5625
0.5625
0.5625
0.5625
0.5625
0.5625
0.5625
0.5625
0.5625
0.5625
0.5625
0.5625
0.5625
0.5625
0.5625
0.5625
0.5625
0.5625
0.0557228
0.0576695
0.0604228
0.0639614
0.0682413
0.0731844
0.0786933
0.0846967
0.0910834
0.0977098
0.10491
0.112261
0.119992
0.127515
0.135285
0.143407
0.152011
0.161288
0.171528
0.18534
0.204293
0.231774
0.266794
0.295559
0.33436
0.344835
0.357398
0.458368
0.470013
0.339063
0.332829
0.327288
0.325073
0.329363
0.348449
0.378139
0.387903
0.392845
0.392375
0.38333
0.362635
0.341152
0.324287
0.311298
0.30024
0.289759
0.279344
0.269293
0.260595
0.254126
0.250151
0.248501
0.248839
0.250832
0.254228
0.258887
0.264813
0.272196
0.281505
0.293653
0.310289
0.335081
0.372881
0.425928
0.484426
0.527743
0.549176
0.555763
0.55853
0.559447
0.560736
0.561636
0.562155
0.562383
0.562465
0.562488
0.562496
0.562499
0.5625
0.5625
0.5625
0.5625
0.5625
0.5625
0.5625
0.5625
0.5625
0.5625
0.5625
0.5625
0.5625
0.5625
0.5625
0.5625
0.5625
0.5625
0.5625
0.5625
0.5625
0.5625
0.5625
0.5625
0.5625
0.5625
0.5625
0.5625
0.5625
0.5625
0.5625
0.5625
0.5625
0.5625
0.5625
0.5625
0.5625
0.5625
0.5625
0.5625
0.5625
0.5625
0.5625
0.5625
0.5625
0.5625
0.5625
0.5625
0.5625
0.5625
0.5625
0.5625
0.5625
0.5625
0.5625
0.5625
0.5625
0.5625
0.5625
0.5625
0.5625
0.5625
0.5625
0.5625
0.5625
0.5625
0.5625
0.5625
0.5625
0.5625
0.5625
0.5625
0.0590277
0.0612243
0.0643759
0.068473
0.0734581
0.0792075
0.0855602
0.0923774
0.0995203
0.106912
0.114744
0.122773
0.131338
0.140647
0.149502
0.158967
0.169361
0.181157
0.19517
0.217856
0.249575
0.297215
0.350468
0.367807
0.389915
0.544613
0.562265
0.56222
0.561418
0.553686
0.454819
0.351647
0.35075
0.360774
0.399242
0.421168
0.534647
0.561382
0.551373
0.485454
0.382573
0.370091
0.359476
0.350871
0.34214
0.331474
0.317935
0.301966
0.286171
0.273602
0.265203
0.260653
0.259268
0.260417
0.263656
0.268774
0.275846
0.28531
0.29814
0.316266
0.34315
0.384664
0.444649
0.506252
0.543276
0.556985
0.560635
0.562355
0.562402
0.56173
0.562109
0.562292
0.562422
0.562478
0.562495
0.562498
0.562499
0.5625
0.5625
0.5625
0.5625
0.5625
0.5625
0.5625
0.5625
0.5625
0.5625
0.5625
0.5625
0.5625
0.5625
0.5625
0.5625
0.5625
0.5625
0.5625
0.5625
0.5625
0.5625
0.5625
0.5625
0.5625
0.5625
0.5625
0.5625
0.5625
0.5625
0.5625
0.5625
0.5625
0.5625
0.5625
0.5625
0.5625
0.5625
0.5625
0.5625
0.5625
0.5625
0.5625
0.5625
0.5625
0.5625
0.5625
0.5625
0.5625
0.5625
0.5625
0.5625
0.5625
0.5625
0.5625
0.5625
0.5625
0.5625
0.5625
0.5625
0.5625
0.5625
0.5625
0.5625
0.5625
0.5625
0.5625
0.5625
0.5625
0.5625
0.5625
0.5625
0.5625
0.0621455
0.0646705
0.0683645
0.0732511
0.0792559
0.0861652
0.093685
0.101588
0.10973
0.11808
0.126754
0.135688
0.14518
0.155762
0.167628
0.179378
0.193059
0.210037
0.234977
0.277692
0.325203
0.395551
0.430117
0.547611
0.562321
0.562465
0.562499
0.562499
0.562498
0.562477
0.561979
0.500943
0.38757
0.407275
0.470014
0.55998
0.562492
0.562499
0.562475
0.562061
0.495829
0.389904
0.386739
0.385759
0.383466
0.377093
0.363816
0.341668
0.315077
0.294358
0.280837
0.273266
0.270285
0.270881
0.274462
0.280892
0.29056
0.304481
0.324585
0.354621
0.400732
0.463115
0.520759
0.550443
0.559852
0.561839
0.562487
0.5625
0.5625
0.562499
0.56249
0.562456
0.562485
0.562497
0.5625
0.5625
0.5625
0.5625
0.5625
0.5625
0.5625
0.5625
0.5625
0.5625
0.5625
0.5625
0.5625
0.5625
0.5625
0.5625
0.5625
0.5625
0.5625
0.5625
0.5625
0.5625
0.5625
0.5625
0.5625
0.5625
0.5625
0.5625
0.5625
0.5625
0.5625
0.5625
0.5625
0.5625
0.5625
0.5625
0.5625
0.5625
0.5625
0.5625
0.5625
0.5625
0.5625
0.5625
0.5625
0.5625
0.5625
0.5625
0.5625
0.5625
0.5625
0.5625
0.5625
0.5625
0.5625
0.5625
0.5625
0.5625
0.5625
0.5625
0.5625
0.5625
0.5625
0.5625
0.5625
0.5625
0.5625
0.5625
0.5625
0.5625
0.5625
0.5625
0.5625
0.5625
0.5625
0.5625
0.065078
0.0680205
0.0724518
0.0784874
0.0860421
0.0947114
0.103909
0.113306
0.122783
0.132369
0.142198
0.15239
0.163316
0.175604
0.190701
0.208768
0.229937
0.260749
0.321158
0.404011
0.457478
0.517349
0.561904
0.562464
0.562499
0.5625
0.5625
0.5625
0.5625
0.5625
0.562499
0.561208
0.53733
0.476269
0.553592
0.562398
0.5625
0.5625
0.5625
0.562499
0.561869
0.466953
0.524524
0.542053
0.537051
0.490725
0.430349
0.34993
0.326357
0.306742
0.29251
0.284013
0.280658
0.281765
0.28711
0.297224
0.313439
0.337865
0.373287
0.423467
0.484167
0.532742
0.554198
0.560741
0.562249
0.562498
0.5625
0.5625
0.5625
0.5625
0.5625
0.562499
0.562498
0.5625
0.5625
0.5625
0.5625
0.5625
0.5625
0.5625
0.5625
0.5625
0.5625
0.5625
0.5625
0.5625
0.5625
0.5625
0.5625
0.5625
0.5625
0.5625
0.5625
0.5625
0.5625
0.5625
0.5625
0.5625
0.5625
0.5625
0.5625
0.5625
0.5625
0.5625
0.5625
0.5625
0.5625
0.5625
0.5625
0.5625
0.5625
0.5625
0.5625
0.5625
0.5625
0.5625
0.5625
0.5625
0.5625
0.5625
0.5625
0.5625
0.5625
0.5625
0.5625
0.5625
0.5625
0.5625
0.5625
0.5625
0.5625
0.5625
0.5625
0.5625
0.5625
0.5625
0.5625
0.5625
0.5625
0.5625
0.5625
0.5625
0.5625
0.5625
0.5625
0.5625
0.5625
0.5625
0.5625
0.5625
0.0678259
0.0712706
0.0766966
0.0844728
0.0945775
0.106202
0.118007
0.1296
0.140953
0.152245
0.163777
0.175931
0.189332
0.20498
0.224876
0.255833
0.299493
0.373067
0.484828
0.540112
0.561593
0.562315
0.562497
0.5625
0.5625
0.5625
0.5625
0.5625
0.5625
0.5625
0.5625
0.562496
0.561182
0.531538
0.560869
0.562488
0.5625
0.5625
0.5625
0.5625
0.559056
0.528993
0.559925
0.562393
0.562285
0.552843
0.511984
0.356166
0.333125
0.31453
0.300753
0.292672
0.290358
0.293992
0.30486
0.325635
0.359384
0.407791
0.463002
0.513409
0.544609
0.557422
0.561313
0.562284
0.562475
0.5625
0.5625
0.5625
0.5625
0.5625
0.5625
0.5625
0.5625
0.5625
0.5625
0.5625
0.5625
0.5625
0.5625
0.5625
0.5625
0.5625
0.5625
0.5625
0.5625
0.5625
0.5625
0.5625
0.5625
0.5625
0.5625
0.5625
0.5625
0.5625
0.5625
0.5625
0.5625
0.5625
0.5625
0.5625
0.5625
0.5625
0.5625
0.5625
0.5625
0.5625
0.5625
0.5625
0.5625
0.5625
0.5625
0.5625
0.5625
0.5625
0.5625
0.5625
0.5625
0.5625
0.5625
0.5625
0.5625
0.5625
0.5625
0.5625
0.5625
0.5625
0.5625
0.5625
0.5625
0.5625
0.5625
0.5625
0.5625
0.5625
0.5625
0.5625
0.5625
0.5625
0.5625
0.5625
0.5625
0.5625
0.5625
0.5625
0.5625
0.5625
0.5625
0.5625
0.5625
0.5625
0.0703818
0.0743627
0.0810627
0.091567
0.106425
0.124088
0.140711
0.156075
0.170225
0.183971
0.1982
0.213764
0.231925
0.254739
0.286215
0.33789
0.433158
0.52676
0.559161
0.562388
0.562496
0.562499
0.5625
0.5625
0.5625
0.5625
0.5625
0.5625
0.5625
0.5625
0.5625
0.5625
0.562451
0.555732
0.562389
0.5625
0.5625
0.5625
0.5625
0.5625
0.561858
0.556725
0.562439
0.5625
0.562499
0.561236
0.536689
0.360282
0.33732
0.319278
0.306436
0.299997
0.301086
0.312639
0.340918
0.392185
0.459261
0.523251
0.546872
0.557102
0.560819
0.561989
0.562334
0.562465
0.562495
0.5625
0.5625
0.5625
0.5625
0.5625
0.5625
0.5625
0.5625
0.5625
0.5625
0.5625
0.5625
0.5625
0.5625
0.5625
0.5625
0.5625
0.5625
0.5625
0.5625
0.5625
0.5625
0.5625
0.5625
0.5625
0.5625
0.5625
0.5625
0.5625
0.5625
0.5625
0.5625
0.5625
0.5625
0.5625
0.5625
0.5625
0.5625
0.5625
0.5625
0.5625
0.5625
0.5625
0.5625
0.5625
0.5625
0.5625
0.5625
0.5625
0.5625
0.5625
0.5625
0.5625
0.5625
0.5625