/*--------------------------------*- C++ -*----------------------------------*\
| =========                 |                                                 |
| \\      /  F ield         | OpenFOAM: The Open Source CFD Toolbox           |
|  \\    /   O peration     | Version:  2.1.0                                 |
|   \\  /    A nd           | Web:      www.OpenFOAM.org                      |
|    \\/     M anipulation  |                                                 |
\*---------------------------------------------------------------------------*/
FoamFile
{
    version     2.0;
    format      ascii;
    class       volScalarField;
    location    "16060";
    object      kr_w;
}
// * * * * * * * * * * * * * * * * * * * * * * * * * * * * * * * * * * * * * //

dimensions      [0 0 0 0 0 0 0];

internalField   nonuniform List<scalar> 
15000
(
0.5625
0.562381
0.559133
0.544793
0.518906
0.488303
0.457919
0.429636
0.403888
0.380604
0.359563
0.340524
0.323259
0.307565
0.293263
0.280196
0.268224
0.257225
0.247087
0.237709
0.229007
0.220913
0.213365
0.206311
0.199704
0.193503
0.187669
0.182167
0.176964
0.172033
0.167348
0.162887
0.15863
0.154557
0.150653
0.146901
0.143288
0.139801
0.13643
0.133164
0.129994
0.126911
0.123908
0.120979
0.118117
0.115317
0.112575
0.109886
0.107246
0.104654
0.102105
0.0995991
0.0971328
0.0947053
0.0923151
0.0899611
0.0876413
0.0853544
0.0830984
0.0808706
0.0786677
0.0764863
0.074322
0.0721696
0.0700228
0.0678745
0.0657158
0.0635358
0.0613226
0.0590606
0.0567293
0.0543018
0.0517421
0.0489998
0.0460033
0.0426483
0.0387818
0.0341822
0.0285587
0.021672
0.0138548
0.00682786
0.00256128
0.000800995
0.000229663
6.33532e-05
1.7109e-05
4.54981e-06
1.19416e-06
3.09728e-07
7.94588e-08
2.01791e-08
5.07688e-09
1.26638e-09
3.1341e-10
7.70181e-11
1.88101e-11
4.57026e-12
1.10599e-12
2.66974e-13
6.44622e-14
1.56345e-14
3.8229e-15
9.36673e-16
1.93685e-16
3.17516e-18
0
0
0
0
0
0
0
0
0
0
0
0
0
0
0
0
0
0
0
0
0
0
0
0
0
0
0
0
0
0
0
0
0
0
0
0
0
0
0
0
0
0
0
0
0.56238
0.560884
0.552553
0.532935
0.505594
0.476042
0.447365
0.420703
0.396309
0.374113
0.353941
0.335596
0.31889
0.30365
0.289718
0.276955
0.265235
0.254444
0.244479
0.235247
0.22667
0.218684
0.211232
0.204264
0.197736
0.191607
0.185839
0.180397
0.175252
0.170374
0.165741
0.16133
0.157121
0.153095
0.149235
0.145525
0.141953
0.138507
0.135174
0.131946
0.128812
0.125764
0.122796
0.119899
0.117068
0.114298
0.111583
0.108919
0.106303
0.103731
0.101201
0.0987109
0.0962582
0.0938422
0.0914611
0.0891134
0.086798
0.084513
0.0822559
0.0800241
0.0778145
0.0756236
0.0734464
0.071278
0.0691117
0.0669394
0.0647517
0.0625376
0.060284
0.0579736
0.055584
0.0530849
0.0504356
0.0475796
0.0444373
0.0408923
0.0367754
0.0318503
0.0258391
0.0186394
0.0110005
0.00494591
0.00174233
0.000531357
0.000151565
4.18712e-05
1.13431e-05
3.02667e-06
7.96964e-07
2.07321e-07
5.33284e-08
1.35744e-08
3.42175e-09
8.54808e-10
2.11783e-10
5.20779e-11
1.27213e-11
3.08998e-12
7.47157e-13
1.80168e-13
4.34458e-14
1.05225e-14
2.56553e-15
6.09631e-16
9.52549e-17
0
0
0
0
0
0
0
0
0
0
0
0
0
0
0
0
0
0
0
0
0
0
0
0
0
0
0
0
0
0
0
0
0
0
0
0
0
0
0
0
0
0
0
0
0
0.559195
0.552644
0.537533
0.514569
0.487752
0.460349
0.434022
0.409421
0.386717
0.365878
0.34679
0.329316
0.313313
0.298644
0.28518
0.272803
0.261403
0.25088
0.24114
0.232099
0.223687
0.215846
0.208524
0.201675
0.195255
0.189227
0.183552
0.178199
0.173137
0.168338
0.163781
0.159441
0.155301
0.15134
0.147542
0.143893
0.14038
0.13699
0.133712
0.130537
0.127453
0.124454
0.121532
0.11868
0.115891
0.113159
0.11048
0.10785
0.105264
0.102719
0.100213
0.0977438
0.0953093
0.0929082
0.0905392
0.0882008
0.0858917
0.0836097
0.0813529
0.0791187
0.0769042
0.0747059
0.0725187
0.070337
0.0681538
0.0659607
0.0637479
0.0615034
0.0592127
0.0568565
0.0544101
0.0518407
0.0491022
0.0461315
0.0428374
0.039089
0.0346973
0.0294101
0.0229835
0.0155403
0.00833653
0.00340921
0.00113483
0.000338774
9.61741e-05
2.65884e-05
7.21866e-06
1.93077e-06
5.0954e-07
1.32809e-07
3.42157e-08
8.71926e-09
2.19933e-09
5.49488e-10
1.36082e-10
3.34302e-11
8.15338e-12
1.97613e-12
4.76544e-13
1.14557e-13
2.75287e-14
6.63927e-15
1.61616e-15
3.55618e-16
3.17516e-18
0
0
0
0
0
0
0
0
0
0
0
0
0
0
0
0
0
0
0
0
0
0
0
0
0
0
0
0
0
0
0
0
0
0
0
0
0
0
0
0
0
0
0
0
0
0.545183
0.533353
0.514868
0.491999
0.467355
0.442698
0.418965
0.39658
0.375698
0.356338
0.338448
0.321945
0.306733
0.292713
0.279785
0.267853
0.256826
0.246615
0.237138
0.228322
0.220107
0.212441
0.205278
0.198574
0.19229
0.186386
0.18083
0.175588
0.170631
0.165933
0.161471
0.157223
0.15317
0.149292
0.145575
0.142004
0.138567
0.13525
0.132042
0.128934
0.125915
0.122978
0.120116
0.117319
0.114583
0.1119
0.109266
0.106677
0.104129
0.101618
0.099141
0.0966972
0.0942848
0.091902
0.0895475
0.08722
0.0849184
0.0826409
0.0803856
0.0781503
0.075932
0.0737267
0.07153
0.0693357
0.0671366
0.0649242
0.0626879
0.0604149
0.058089
0.0556889
0.0531864
0.0505445
0.0477117
0.0446162
0.041154
0.0371745
0.0324661
0.0267673
0.0199179
0.0124025
0.00597276
0.00223284
0.000709354
0.00020823
5.88643e-05
1.62725e-05
4.42284e-06
1.18454e-06
3.12974e-07
8.16449e-08
2.10432e-08
5.36204e-09
1.35161e-09
3.37244e-10
8.33556e-11
2.04235e-11
4.9645e-12
1.19836e-12
2.87632e-13
6.87931e-14
1.64854e-14
3.95943e-15
9.49374e-16
1.9051e-16
3.17516e-18
0
0
0
0
0
0
0
0
0
0
0
0
0
0
0
0
0
0
0
0
0
0
0
0
0
0
0
0
0
0
0
0
0
0
0
0
0
0
0
0
0
0
0
0
0
0.519925
0.506564
0.488534
0.467807
0.446002
0.424196
0.403019
0.382814
0.363747
0.345881
0.329219
0.313727
0.299348
0.286018
0.273665
0.262214
0.25159
0.241719
0.232529
0.223963
0.215969
0.208503
0.201522
0.194987
0.188859
0.183103
0.177686
0.172576
0.167745
0.163166
0.158819
0.154681
0.150733
0.146957
0.143338
0.139861
0.136515
0.133286
0.130163
0.127137
0.124197
0.121336
0.118545
0.115816
0.113143
0.110519
0.10794
0.1054
0.102896
0.100425
0.0979834
0.0955701
0.0931832
0.0908212
0.0884834
0.0861688
0.0838761
0.0816039
0.0793507
0.0771146
0.0748929
0.0726814
0.0704753
0.068269
0.0660546
0.0638225
0.0615619
0.0592593
0.0568964
0.0544496
0.0518872
0.0491666
0.0462292
0.0429915
0.0393332
0.0350803
0.0299972
0.0238345
0.016613
0.00933786
0.00401429
0.00138797
0.000425448
0.000123326
3.47348e-05
9.59542e-06
2.60859e-06
6.98901e-07
1.84696e-07
4.81733e-08
1.2408e-08
3.15769e-09
7.94402e-10
1.97674e-10
4.86883e-11
1.18787e-11
2.87281e-12
6.89385e-13
1.64381e-13
3.90513e-14
9.29688e-15
2.24802e-15
5.08026e-16
5.08026e-17
0
0
0
0
0
0
0
0
0
0
0
0
0
0
0
0
0
0
0
0
0
0
0
0
0
0
0
0
0
0
0
0
0
0
0
0
0
0
0
0
0
0
0
0
0
0
0.490113
0.477706
0.461747
0.443717
0.424743
0.405596
0.38678
0.368604
0.351253
0.334826
0.319364
0.304872
0.29133
0.2787
0.266935
0.255979
0.245772
0.236252
0.227366
0.219066
0.211311
0.204062
0.197282
0.190933
0.18498
0.17939
0.17413
0.169169
0.164482
0.160042
0.155827
0.151817
0.147991
0.144332
0.140826
0.137459
0.134219
0.131093
0.12807
0.12514
0.122293
0.119521
0.116813
0.114164
0.111566
0.109011
0.106496
0.104015
0.101563
0.099139
0.0967385
0.09436
0.0920022
0.0896641
0.0873448
0.0850442
0.0827613
0.080495
0.078244
0.0760066
0.0737805
0.0715616
0.069345
0.0671249
0.0648934
0.0626409
0.0603551
0.058021
0.0556177
0.0531182
0.0504873
0.0476753
0.0446142
0.0412064
0.0373102
0.0327247
0.0271954
0.0205372
0.013117
0.00653342
0.00251837
0.000818188
0.000244431
7.02129e-05
1.97148e-05
5.44057e-06
1.47847e-06
3.95973e-07
1.04578e-07
2.72478e-08
7.00663e-09
1.7789e-09
4.46111e-10
1.10555e-10
2.70948e-11
6.5717e-12
1.57859e-12
3.7593e-13
8.89078e-14
2.0937e-14
4.94373e-15
1.16211e-15
2.31787e-16
3.17516e-18
0
0
0
0
0
0
0
0
0
0
0
0
0
0
0
0
0
0
0
0
0
0
0
0
0
0
0
0
0
0
0
0
0
0
0
0
0
0
0
0
0
0
0
0
0
0
0.460597
0.449814
0.436131
0.42064
0.404184
0.387378
0.370653
0.354302
0.338518
0.323426
0.309095
0.29556
0.282827
0.270881
0.259695
0.24923
0.239437
0.23027
0.221693
0.213668
0.206162
0.199142
0.192573
0.186424
0.18066
0.17525
0.170163
0.165369
0.160842
0.156558
0.152492
0.148625
0.144936
0.14141
0.138032
0.13479
0.13167
0.128661
0.125752
0.122932
0.120192
0.117522
0.114912
0.112355
0.109844
0.107371
0.10493
0.102517
0.100126
0.0977557
0.0954021
0.0930637
0.0907389
0.0884273
0.086129
0.0838433
0.0815701
0.0793086
0.0770588
0.0748188
0.0725862
0.0703579
0.0681289
0.0658926
0.0636413
0.0613651
0.0590502
0.056679
0.0542284
0.0516671
0.0489543
0.0460323
0.04282
0.0392012
0.0350079
0.0300095
0.0239568
0.016844
0.00959989
0.0041944
0.0014714
0.000456862
0.000134146
3.82959e-05
1.0728e-05
2.95754e-06
8.03154e-07
2.14933e-07
5.6697e-08
1.47461e-08
3.78236e-09
9.5707e-10
2.38977e-10
5.89055e-11
1.43436e-11
3.45317e-12
8.22552e-13
1.94085e-13
4.54556e-14
1.06304e-14
2.50203e-15
5.52478e-16
6.35033e-17
0
0
0
0
0
0
0
0
0
0
0
0
0
0
0
0
0
0
0
0
0
0
0
0
0
0
0
0
0
0
0
0
0
0
0
0
0
0
0
0
0
0
0
0
0
0
0
0.433234
0.424003
0.412313
0.398973
0.384644
0.369828
0.354904
0.340149
0.325759
0.311873
0.298579
0.285933
0.27396
0.262663
0.25203
0.242032
0.232638
0.223819
0.215548
0.207799
0.200545
0.193757
0.187407
0.181465
0.1759
0.170681
0.16578
0.161168
0.156818
0.152705
0.148804
0.145095
0.141558
0.138178
0.134942
0.131837
0.128851
0.125974
0.123193
0.120498
0.11788
0.115326
0.112829
0.110379
0.107967
0.105588
0.103233
0.100898
0.0985786
0.0962701
0.0939702
0.0916768
0.089389
0.0871068
0.0848308
0.0825606
0.0802968
0.0780394
0.0757886
0.0735431
0.0713009
0.0690589
0.0668129
0.0645561
0.0622799
0.0599741
0.0576233
0.055207
0.0526983
0.0500612
0.0472466
0.0441862
0.0407822
0.0368935
0.0323202
0.0268102
0.0201866
0.0128363
0.00636598
0.00245231
0.000800431
0.000241223
7.00823e-05
1.99338e-05
5.57673e-06
1.53643e-06
4.16975e-07
1.11478e-07
2.93606e-08
7.61838e-09
1.94776e-09
4.90743e-10
1.21876e-10
2.98429e-11
7.2087e-12
1.72008e-12
4.05672e-13
9.47088e-14
2.19245e-14
5.04216e-15
1.14941e-15
2.15911e-16
3.17516e-18
0
0
0
0
0
0
0
0
0
0
0
0
0
0
0
0
0
0
0
0
0
0
0
0
0
0
0
0
0
0
0
0
0
0
0
0
0
0
0
0
0
0
0
0
0
0
0
0.408455
0.400518
0.390446
0.378853
0.366266
0.353102
0.339697
0.326309
0.313132
0.30031
0.287944
0.276103
0.264825
0.254125
0.244002
0.234438
0.22542
0.216932
0.208958
0.201478
0.194471
0.187914
0.181783
0.17605
0.170689
0.165671
0.160968
0.156551
0.152392
0.148464
0.144742
0.141204
0.137832
0.134612
0.13153
0.128576
0.125738
0.123006
0.120369
0.117815
0.115334
0.112914
0.110545
0.108217
0.105921
0.103649
0.101394
0.0991494
0.0969111
0.0946743
0.0924356
0.0901934
0.0879473
0.0856976
0.0834448
0.0811896
0.078934
0.0766788
0.0744235
0.0721679
0.0699109
0.0676497
0.0653797
0.0630949
0.0607865
0.0584419
0.056044
0.05357
0.0509871
0.0482526
0.045307
0.0420671
0.0384125
0.0341704
0.029107
0.0229845
0.0158628
0.008805
0.0037559
0.00130371
0.000405539
0.000120129
3.47173e-05
9.86245e-06
2.75906e-06
7.60234e-07
2.06274e-07
5.50982e-08
1.4486e-08
3.74832e-09
9.54563e-10
2.39268e-10
5.90391e-11
1.43436e-11
3.43215e-12
8.10349e-13
1.88922e-13
4.36013e-14
1.00145e-14
2.27659e-15
4.7945e-16
2.22261e-17
0
0
0
0
0
0
0
0
0
0
0
0
0
0
0
0
0
0
0
0
0
0
0
0
0
0
0
0
0
0
0
0
0
0
0
0
0
0
0
0
0
0
0
0
0
0
0
0
0.386189
0.37928
0.370484
0.360279
0.34909
0.337273
0.325125
0.312884
0.300739
0.288836
0.277281
0.266151
0.25549
0.245323
0.235655
0.226486
0.217814
0.209635
0.201939
0.194713
0.187942
0.181606
0.175685
0.170159
0.165001
0.160188
0.155691
0.151481
0.147526
0.143799
0.140271
0.136919
0.133726
0.130677
0.127762
0.124972
0.122296
0.119724
0.117247
0.114851
0.112525
0.110257
0.108033
0.105845
0.103682
0.101534
0.0993944
0.0972561
0.0951125
0.0929581
0.0907897
0.0886058
0.0864064
0.0841922
0.0819643
0.0797245
0.0774747
0.0752168
0.0729516
0.0706796
0.0684003
0.0661107
0.063807
0.0614828
0.0591292
0.0567322
0.0542716
0.0517197
0.0490383
0.0461747
0.0430558
0.0395765
0.0355852
0.0308708
0.0251841
0.0184177
0.0111835
0.00526069
0.00195627
0.000631746
0.000191288
5.62399e-05
1.62409e-05
4.6197e-06
1.2945e-06
3.57135e-07
9.69448e-08
2.58794e-08
6.79153e-09
1.75178e-09
4.44081e-10
1.10643e-10
2.70964e-11
6.5238e-12
1.54458e-12
3.60359e-13
8.29765e-14
1.89271e-14
4.29917e-15
9.49374e-16
1.68284e-16
3.17516e-18
0
0
0
0
0
0
0
0
0
0
0
0
0
0
0
0
0
0
0
0
0
0
0
0
0
0
0
0
0
0
0
0
0
0
0
0
0
0
0
0
0
0
0
0
0
0
0
0
0.366221
0.360112
0.352308
0.343186
0.333101
0.32236
0.31123
0.29993
0.288644
0.277514
0.266649
0.256127
0.245998
0.236288
0.227017
0.218198
0.209837
0.201938
0.194495
0.187499
0.180941
0.174806
0.16908
0.163746
0.158786
0.154177
0.149891
0.145898
0.142164
0.138655
0.135338
0.132189
0.129188
0.126324
0.123588
0.120972
0.118471
0.116075
0.113775
0.111557
0.109407
0.107311
0.105256
0.103229
0.10122
0.0992173
0.0972129
0.0951978
0.0931643
0.0911063
0.0890202
0.0869043
0.084758
0.0825823
0.0803798
0.078154
0.0759074
0.0736417
0.0713596
0.0690618
0.0667482
0.0644165
0.0620635
0.0596827
0.0572639
0.0547913
0.0522421
0.0495827
0.0467668
0.0437285
0.0403732
0.0365646
0.032111
0.0267685
0.0203558
0.0131918
0.00673794
0.00268209
0.000902225
0.000279918
8.38584e-05
2.46572e-05
7.14531e-06
2.04094e-06
5.74029e-07
1.58794e-07
4.3162e-08
1.15194e-08
3.01731e-09
7.75488e-10
1.95552e-10
4.83838e-11
1.17473e-11
2.79938e-12
6.54998e-13
1.50808e-13
3.42568e-14
7.70612e-15
1.71141e-15
3.33392e-16
3.17516e-18
0
0
0
0
0
0
0
0
0
0
0
0
0
0
0
0
0
0
0
0
0
0
0
0
0
0
0
0
0
0
0
0
0
0
0
0
0
0
0
0
0
0
0
0
0
0
0
0
0
0.34831
0.342819
0.335772
0.327481
0.318248
0.308346
0.298017
0.287468
0.276873
0.266372
0.256073
0.246051
0.236358
0.227031
0.218099
0.209583
0.201494
0.193837
0.18661
0.179811
0.173432
0.167466
0.161905
0.15674
0.151958
0.147543
0.14347
0.139706
0.136211
0.132942
0.129859
0.126932
0.124141
0.121473
0.118926
0.116497
0.114184
0.111981
0.109878
0.107861
0.105913
0.104017
0.102157
0.100318
0.0984894
0.0966581
0.0948136
0.0929454
0.0910438
0.0891011
0.0871124
0.0850749
0.0829885
0.0808559
0.0786807
0.0764665
0.0742173
0.0719367
0.0696277
0.0672913
0.0649267
0.0625323
0.0601048
0.0576374
0.0551193
0.0525358
0.0498572
0.047045
0.0440405
0.0407575
0.0370703
0.0327989
0.027708
0.0215862
0.0145926
0.00791258
0.00333608
0.00116716
0.000371415
0.000113555
3.40638e-05
1.00821e-05
2.9447e-06
8.4739e-07
2.39807e-07
6.66274e-08
1.81513e-08
4.8448e-09
1.26638e-09
3.24125e-10
8.12337e-11
1.99385e-11
4.79368e-12
1.12925e-12
2.60802e-13
5.91914e-14
1.32976e-14
2.9656e-15
6.25507e-16
6.35033e-17
0
0
0
0
0
0
0
0
0
0
0
0
0
0
0
0
0
0
0
0
0
0
0
0
0
0
0
0
0
0
0
0
0
0
0
0
0
0
0
0
0
0
0
0
0
0
0
0
0
0
0.332241
0.327217
0.320736
0.313062
0.304464
0.295189
0.285463
0.275483
0.265418
0.255404
0.245543
0.235911
0.226564
0.217549
0.208897
0.200633
0.192768
0.185307
0.178251
0.1716
0.165352
0.159505
0.154061
0.149018
0.144377
0.140131
0.136262
0.132739
0.12951
0.126516
0.123701
0.121025
0.118462
0.116004
0.113655
0.111421
0.10931
0.107319
0.105439
0.103654
0.101942
0.100281
0.0986515
0.0970371
0.0954234
0.0937975
0.0921464
0.0904571
0.0887165
0.0869142
0.0850428
0.0830991
0.0810832
0.0789989
0.0768515
0.0746462
0.0723882
0.0700825
0.0677316
0.0653359
0.0628945
0.0604055
0.0578534
0.0552226
0.0525269
0.0497761
0.0469302
0.0439076
0.040637
0.0370051
0.0328412
0.0279151
0.0220044
0.0151995
0.00852619
0.00373605
0.00134915
0.000439787
0.000137359
4.21221e-05
1.27702e-05
3.82825e-06
1.13233e-06
3.29508e-07
9.40793e-08
2.62981e-08
7.18668e-09
1.91857e-09
5.00228e-10
1.27394e-10
3.16991e-11
7.7092e-12
1.83316e-12
4.26418e-13
9.71187e-14
2.17213e-14
4.79132e-15
1.0351e-15
1.80984e-16
3.17516e-18
0
0
0
0
0
0
0
0
0
0
0
0
0
0
0
0
0
0
0
0
0
0
0
0
0
0
0
0
0
0
0
0
0
0
0
0
0
0
0
0
0
0
0
0
0
0
0
0
0
0
0.317819
0.313141
0.307064
0.299824
0.291667
0.282826
0.273518
0.263934
0.25424
0.244568
0.235019
0.225671
0.216588
0.207814
0.199384
0.191316
0.183621
0.176301
0.169357
0.162789
0.156601
0.150796
0.145386
0.140243
0.135384
0.130994
0.127277
0.124043
0.121171
0.118567
0.116138
0.113817
0.111568
0.109385
0.107286
0.105296
0.103436
0.101715
0.100123
0.0986416
0.0972405
0.0958884
0.0945583
0.0932305
0.0918904
0.0905253
0.0891209
0.08766
0.0861245
0.0845002
0.0827763
0.0809485
0.0790182
0.0769907
0.074873
0.0726732
0.0703976
0.0680518
0.0656378
0.063154
0.060597
0.0579533
0.0551725
0.0522728
0.049263
0.0461766
0.0430612
0.0397513
0.0361188
0.0320011
0.0271719
0.021412
0.014813
0.00836561
0.00372019
0.00137016
0.000456065
0.000145587
4.57221e-05
1.42361e-05
4.39662e-06
1.34337e-06
4.04496e-07
1.19517e-07
3.45254e-08
9.72523e-09
2.66733e-09
7.11981e-10
1.85004e-10
4.68251e-11
1.15525e-11
2.78016e-12
6.53052e-13
1.49893e-13
3.36821e-14
7.45528e-15
1.61616e-15
3.11166e-16
3.17516e-18
0
0
0
0
0
0
0
0
0
0
0
0
0
0
0
0
0
0
0
0
0
0
0
0
0
0
0
0
0
0
0
0
0
0
0
0
0
0
0
0
0
0
0
0
0
0
0
0
0
0
0
0.304881
0.300446
0.294634
0.287663
0.279769
0.271177
0.262103
0.252743
0.24326
0.233787
0.224431
0.215273
0.206376
0.197779
0.189509
0.181579
0.17399
0.166742
0.159832
0.153258
0.147024
0.141138
0.135149
0.129225
0.123555
0.118346
0.113949
0.111093
0.108792
0.106873
0.105135
0.103443
0.101731
0.0999931
0.0982734
0.0966445
0.0951706
0.0938786
0.0927635
0.0917952
0.0909245
0.090093
0.0892557
0.0883871
0.0874748
0.086509
0.0854755
0.0843532
0.083118
0.0817485
0.0802315
0.0785629
0.0767465
0.0747919
0.0727102
0.0705131
0.068209
0.0658032
0.0632955
0.0606799
0.0579442
0.0550089
0.0518629
0.0484764
0.0448671
0.0411409
0.0374803
0.0337642
0.0296493
0.0249126
0.0193509
0.0131263
0.00727105
0.00321253
0.00119451
0.000405121
0.000132299
4.26141e-05
1.36481e-05
4.35143e-06
1.37827e-06
4.31885e-07
1.33122e-07
4.01147e-08
1.17589e-08
3.34254e-09
9.20203e-10
2.45409e-10
6.34719e-11
1.59436e-11
3.89504e-12
9.2656e-13
2.1487e-13
4.86435e-14
1.08051e-14
2.37185e-15
4.76275e-16
3.17516e-18
0
0
0
0
0
0
0
0
0
0
0
0
0
0
0
0
0
0
0
0
0
0
0
0
0
0
0
0
0
0
0
0
0
0
0
0
0
0
0
0
0
0
0
0
0
0
0
0
0
0
0
0
0.293285
0.289004
0.28333
0.276474
0.268667
0.260138
0.251113
0.241795
0.23236
0.222952
0.213682
0.204629
0.195846
0.187362
0.17919
0.171331
0.163777
0.156516
0.149535
0.142825
0.136381
0.129481
0.122327
0.11496
0.107398
0.100219
0.0939161
0.090853
0.0894367
0.0887521
0.0882773
0.0877184
0.0869134
0.0858403
0.0846071
0.0834085
0.0824361
0.0817665
0.0814053
0.0813093
0.0813835
0.081492
0.0815381
0.0814804
0.0813122
0.0810344
0.0806365
0.0800908
0.0793597
0.078411
0.0772278
0.0758094
0.0741684
0.0723236
0.0702956
0.0681033
0.0657599
0.0632696
0.0606266
0.057812
0.0547899
0.0514003
0.0475855
0.0432641
0.0384756
0.0334817
0.0287239
0.0243293
0.0196802
0.014671
0.00952997
0.00511902
0.00225453
0.000853981
0.000297273
9.97723e-05
3.30448e-05
1.08975e-05
3.58791e-06
1.17906e-06
3.85763e-07
1.25007e-07
3.97903e-08
1.23193e-08
3.68371e-09
1.0598e-09
2.9317e-10
7.81017e-11
2.00913e-11
5.00476e-12
1.21013e-12
2.84622e-13
6.52433e-14
1.46312e-14
3.21327e-15
6.63609e-16
6.35033e-17
0
0
0
0
0
0
0
0
0
0
0
0
0
0
0
0
0
0
0
0
0
0
0
0
0
0
0
0
0
0
0
0
0
0
0
0
0
0
0
0
0
0
0
0
0
0
0
0
0
0
0
0
0
0.282866
0.278631
0.272961
0.266075
0.258213
0.249623
0.240544
0.231085
0.221382
0.21191
0.20263
0.193606
0.184874
0.176442
0.168306
0.160447
0.152839
0.145452
0.138252
0.131206
0.123615
0.115104
0.105652
0.0955504
0.0847355
0.0751136
0.0656478
0.0624793
0.0621441
0.0634151
0.0648944
0.0660363
0.0664762
0.0661082
0.0651306
0.0634149
0.0628324
0.0628556
0.0635054
0.064744
0.0664089
0.0681421
0.0697
0.071006
0.0720813
0.0729637
0.073658
0.0741218
0.0742804
0.0740711
0.0734663
0.072474
0.0711261
0.0694641
0.0675289
0.0653539
0.0629601
0.0603506
0.0575063
0.0543807
0.05085
0.046714
0.0417429
0.0357956
0.029091
0.022295
0.0161499
0.0114005
0.00760635
0.00472982
0.00258815
0.00121193
0.00049164
0.000180235
6.25653e-05
2.13077e-05
7.22163e-06
2.44683e-06
8.30136e-07
2.82209e-07
9.60208e-08
3.25231e-08
1.08297e-08
3.48061e-09
1.06887e-09
3.12189e-10
8.67979e-11
2.30703e-11
5.89341e-12
1.45407e-12
3.47849e-13
8.09444e-14
1.83937e-14
4.08644e-15
8.69995e-16
1.17481e-16
0
0
0
0
0
0
0
0
0
0
0
0
0
0
0
0
0
0
0
0
0
0
0
0
0
0
0
0
0
0
0
0
0
0
0
0
0
0
0
0
0
0
0
0
0
0
0
0
0
0
0
0
0
0
0.273502
0.269197
0.26338
0.256279
0.248158
0.239296
0.22996
0.220307
0.210533
0.201025
0.191093
0.182021
0.173286
0.164852
0.156685
0.148741
0.140964
0.133291
0.125649
0.117905
0.10813
0.0964721
0.0831373
0.0704528
0.0570898
0.0483617
0.0384739
0.0364014
0.0364901
0.0395113
0.0424972
0.0449127
0.0461563
0.0458411
0.0429023
0.0382334
0.0366427
0.0368099
0.038142
0.0407618
0.0446058
0.0487024
0.0524054
0.0555856
0.058377
0.060933
0.0633092
0.0654292
0.0671075
0.0681776
0.0685674
0.0682958
0.0674347
0.0660723
0.0642904
0.0621515
0.0596904
0.0569057
0.0537512
0.0501248
0.0458042
0.0404182
0.0336129
0.0254794
0.0170424
0.00988391
0.0051023
0.00269533
0.00156783
0.000966948
0.000525043
0.000245813
9.9354e-05
3.58967e-05
1.22464e-05
4.17333e-06
1.43085e-06
4.93088e-07
1.70935e-07
5.98321e-08
2.12195e-08
7.60788e-09
2.70635e-09
9.15416e-10
2.91025e-10
8.6455e-11
2.41051e-11
6.36825e-12
1.60989e-12
3.92618e-13
9.29402e-14
2.14673e-14
4.84212e-15
1.06685e-15
1.80984e-16
3.17516e-18
0
0
0
0
0
0
0
0
0
0
0
0
0
0
0
0
0
0
0
0
0
0
0
0
0
0
0
0
0
0
0
0
0
0
0
0
0
0
0
0
0
0
0
0
0
0
0
0
0
0
0
0
0
0
0.265093
0.260599
0.254465
0.246938
0.238316
0.228939
0.219134
0.209125
0.199157
0.189467
0.179604
0.170169
0.160865
0.152358
0.144084
0.135942
0.127832
0.11963
0.111173
0.100665
0.0877402
0.0716572
0.0550014
0.0439593
0.0320251
0.0292901
0.0262473
0.00906566
0.00771992
0.0307739
0.0324407
0.0339805
0.0346117
0.0333974
0.0283892
0.0217385
0.0198183
0.0188919
0.0189788
0.0207023
0.0250506
0.0302305
0.0348378
0.0387496
0.042353
0.0460195
0.0499232
0.0539558
0.0576709
0.0605782
0.0624286
0.0632116
0.0630506
0.0621082
0.0605317
0.0584262
0.0558422
0.0527634
0.0490911
0.0446277
0.0390677
0.0318309
0.0228244
0.0134057
0.00619079
0.00237555
0.000849189
0.000420456
0.000245604
0.000188363
0.000108354
5.29152e-05
2.11188e-05
7.13353e-06
2.16663e-06
7.15552e-07
2.44367e-07
8.44718e-08
2.95216e-08
1.05427e-08
3.90537e-09
1.521e-09
6.10441e-10
2.22562e-10
7.43818e-11
2.25249e-11
6.26657e-12
1.63478e-12
4.06894e-13
9.78268e-14
2.29374e-14
5.2803e-15
1.18116e-15
2.15911e-16
3.17516e-18
0
0
0
0
0
0
0
0
0
0
0
0
0
0
0
0
0
0
0
0
0
0
0
0
0
0
0
0
0
0
0
0
0
0
0
0
0
0
0
0
0
0
0
0
0
0
0
0
0
0
0
0
0
0
0
0.257541
0.252726
0.24608
0.237863
0.228437
0.21825
0.207738
0.197215
0.186925
0.176974
0.167115
0.15766
0.148225
0.138653
0.130145
0.121632
0.112913
0.103744
0.0937584
0.0794376
0.0627008
0.0433851
0.027895
0.0239084
0.0194376
0.00115678
1.43894e-05
1.71005e-05
6.63347e-05
0.000553704
0.00949663
0.0276093
0.0278265
0.0254711
0.0177366
0.0141237
0.00186078
6.85397e-05
0.000704157
0.00608719
0.0208514
0.0234161
0.0257676
0.027797
0.0299761
0.0328122
0.0367091
0.0417732
0.0473341
0.0521937
0.0556758
0.0576457
0.058257
0.0577492
0.0563388
0.0541716
0.051296
0.0476543
0.0430674
0.0372141
0.0297174
0.0204418
0.0107889
0.00413377
0.00124864
0.000342882
0.000114647
8.86205e-06
5.96275e-06
4.71543e-05
2.3925e-05
1.2688e-05
4.78628e-06
1.33327e-06
3.1357e-07
1.03723e-07
3.48466e-08
1.18419e-08
4.04515e-09
1.42777e-09
5.39027e-10
2.3458e-10
1.23621e-10
4.95463e-11
1.79478e-11
5.52614e-12
1.51314e-12
3.84998e-13
9.36641e-14
2.2169e-14
5.16917e-15
1.17164e-15
2.22261e-16
3.17516e-18
0
0
0
0
0
0
0
0
0
0
0
0
0
0
0
0
0
0
0
0
0
0
0
0
0
0
0
0
0
0
0
0
0
0
0
0
0
0
0
0
0
0
0
0
0
0
0
0
0
0
0
0
0
0
0
0
0.250753
0.245474
0.238075
0.228817
0.218167
0.206774
0.195278
0.184073
0.17335
0.16311
0.153195
0.143668
0.134229
0.12445
0.114323
0.10508
0.0952034
0.0841329
0.069966
0.0505676
0.0345744
0.0183973
0.0127919
0.000953685
1.09528e-05
2.12543e-06
4.37073e-08
3.31701e-08
1.45365e-07
1.41519e-06
3.18719e-05
0.00460743
0.0198818
0.0163523
0.00771979
0.000155205
5.14467e-07
6.81755e-08
1.50274e-06
2.68815e-05
0.00507946
0.0194397
0.0200407
0.0202294
0.0206757
0.0219515
0.0247864
0.0300973
0.0375769
0.0443792
0.0493471
0.0523297
0.0535459
0.0533006
0.0518482
0.0493259
0.0457303
0.0409401
0.034752
0.0268985
0.0174743
0.00850461
0.0029202
0.00076533
0.000163157
4.04726e-05
8.05872e-07
1.3772e-09
2.73036e-09
6.4086e-08
5.93281e-07
2.66583e-06
9.45954e-07
1.62416e-07
2.21225e-08
3.92662e-10
8.97127e-13
2.78304e-11
1.02412e-13
7.64929e-14
5.18082e-13
4.72969e-12
2.45146e-11
9.40551e-12
4.11074e-12
1.25506e-12
3.27378e-13
7.97379e-14
1.88192e-14
4.3595e-15
9.7795e-16
1.80984e-16
3.17516e-18
0
0
0
0
0
0
0
0
0
0
0
0
0
0
0
0
0
0
0
0
0
0
0
0
0
0
0
0
0
0
0
0
0
0
0
0
0
0
0
0
0
0
0
0
0
0
0
0
0
0
0
0
0
0
0
0
0
0.24464
0.238749
0.230293
0.219489
0.20697
0.193775
0.180936
0.168875
0.157649
0.147131
0.137123
0.127486
0.117906
0.107969
0.0968417
0.0849185
0.0726436
0.0576031
0.03575
0.016906
0.00917279
0.00319525
3.651e-05
2.20803e-06
4.45883e-08
5.76476e-09
1.08411e-10
6.796e-11
3.1297e-10
2.96558e-09
7.73126e-08
7.92794e-05
0.00166683
0.00703842
0.000559768
6.22624e-06
1.68964e-08
9.55219e-11
2.491e-09
6.75598e-08
3.86021e-05
0.00806365
0.00262354
0.00133337
0.00168679
0.00556665
0.0127584
0.028026
0.0342447
0.0402026
0.0450322
0.0481397
0.0494157
0.0489915
0.0469869
0.0433821
0.0380817
0.0310892
0.0227392
0.0137741
0.00621702
0.00200054
0.000520678
0.000108092
1.5371e-05
1.50452e-07
3.32312e-10
7.2134e-13
1.02104e-12
3.90615e-11
4.99337e-10
7.85926e-08
1.33995e-07
1.35492e-08
1.04732e-09
1.78007e-11
1.42152e-14
1.13068e-14
3.17516e-18
0
3.17516e-18
7.33463e-16
6.2265e-15
1.39044e-13
8.05142e-13
2.15057e-13
5.22441e-14
1.22149e-14
2.82272e-15
6.09631e-16
6.35033e-17
0
0
0
0
0
0
0
0
0
0
0
0
0
0
0
0
0
0
0
0
0
0
0
0
0
0
0
0
0
0
0
0
0
0
0
0
0
0
0
0
0
0
0
0
0
0
0
0
0
0
0
0
0
0
0
0
0
0
0
0.239131
0.232501
0.222615
0.209487
0.19397
0.177901
0.163197
0.150088
0.13835
0.127618
0.117518
0.107716
0.0978053
0.0873014
0.0754241
0.0597986
0.0426059
0.0227855
0.00615025
0.00146919
5.55858e-05
1.13217e-05
1.68791e-07
7.03706e-09
1.44754e-10
1.59439e-11
2.60417e-13
1.41428e-13
6.8513e-13
6.47952e-12
2.96542e-10
2.37419e-07
8.08438e-05
0.00208973
0.000100166
7.471e-07
2.28041e-09
5.20475e-12
4.55149e-12
1.7053e-10
0.000212749
0.00228061
0.000158628
6.51435e-06
1.31257e-05
0.000608265
0.00364055
0.0265348
0.03236
0.0377448
0.0421799
0.0449748
0.045803
0.0445079
0.0408156
0.0344505
0.0257886
0.0162659
0.0085178
0.00352076
0.00115707
0.000315234
7.28068e-05
1.32027e-05
1.53163e-06
1.02464e-08
1.30651e-11
1.43898e-14
4.60399e-16
2.97545e-14
4.5944e-13
2.83917e-09
9.6112e-09
2.25883e-10
2.34867e-11
7.16069e-13
6.60434e-16
0
0
0
0
0
0
4.76275e-16
7.48704e-14
1.91304e-14
4.51826e-15
1.01288e-15
1.80984e-16
3.17516e-18
0
0
0
0
0
0
0
0
0
0
0
0
0
0
0
0
0
0
0
0
0
0
0
0
0
0
0
0
0
0
0
0
0
0
0
0
0
0
0
0
0
0
0
0
0
0
0
0
0
0
0
0
0
0
0
0
0
0
0
0
0.234184
0.226788
0.215104
0.198428
0.17761
0.15617
0.138591
0.124173
0.112216
0.101663
0.091719
0.0818646
0.0715771
0.0602972
0.0473175
0.0310824
0.0123569
0.00245074
0.000206167
6.86068e-06
2.24089e-07
6.26813e-08
7.92535e-10
2.48265e-11
4.61586e-13
4.41284e-14
3.17516e-18
3.17516e-18
7.96966e-16
1.59806e-14
5.53527e-12
6.5149e-09
3.0089e-06
0.000422417
6.7862e-06
7.3356e-09
3.0949e-11
7.7909e-14
8.15064e-15
3.00288e-13
3.92775e-05
0.000359298
3.70633e-06
2.84713e-08
4.49554e-08
7.75373e-05
0.00171282
0.0255832
0.0312333
0.036307
0.0403016
0.0424353
0.0420679
0.0383301
0.0302911
0.0190139
0.00895875
0.00272306
0.0010034
0.000335467
0.000103258
3.12771e-05
1.01383e-05
2.13458e-06
3.15014e-07
3.08463e-09
5.00694e-12
6.52496e-15
0
0
3.8102e-16
1.3546e-10
6.76649e-10
6.54893e-13
4.3976e-14
2.29469e-14
3.52443e-16
0
0
0
0
0
0
0
0
0
0
0
0
0
0
0
0
0
0
0
0
0
0
0
0
0
0
0
0
0
0
0
0
0
0
0
0
0
0
0
0
0
0
0
0
0
0
0
0
0
0
0
0
0
0
0
0
0
0
0
0
0
0
0
0
0
0
0
0
0
0
0
0
0
0.229781
0.221856
0.208351
0.185896
0.151239
0.109742
0.0802866
0.0589059
0.0699098
0.0649764
0.0570263
0.0487281
0.0397875
0.0297417
0.0189863
0.00800871
0.00138188
5.36844e-05
9.00251e-07
4.39233e-08
1.05633e-09
2.67133e-10
3.51998e-12
9.23973e-14
9.716e-16
0
0
0
0
0
1.98575e-14
2.62655e-11
1.77047e-08
8.42798e-05
4.00005e-07
1.78553e-10
4.1192e-13
3.30217e-16
0
3.17516e-18
5.13412e-06
2.91754e-05
2.06383e-08
9.6598e-11
8.61233e-11
5.86448e-06
0.00424206
0.0252469
0.0307143
0.0353233
0.03843
0.0389506
0.0356698
0.0273893
0.0141237
0.00347214
0.000697928
8.22137e-05
2.23414e-06
7.87282e-07
7.62156e-07
5.07333e-07
1.23993e-06
3.19024e-07
8.73726e-08
1.94506e-09
4.08767e-12
6.31223e-15
0
0
0
7.07705e-12
4.10576e-11
1.39558e-13
0
1.71459e-16
0
0
0
0
0
0
0
0
0
0
0
0
0
0
0
0
0
0
0
0
0
0
0
0
0
0
0
0
0
0
0
0
0
0
0
0
0
0
0
0
0
0
0
0
0
0
0
0
0
0
0
0
0
0
0
0
0
0
0
0
0
0
0
0
0
0
0
0
0
0
0
0
0
0
0.225886
0.218041
0.204542
0.181894
0.14757
0.107588
0.0284277
0.0145446
0.0171295
0.0194193
0.0172729
0.0137749
0.0126471
0.00736249
0.00355336
0.00126893
1.99106e-05
3.15482e-07
4.59533e-09
2.07346e-10
4.68083e-12
1.0116e-12
1.46883e-14
3.17516e-18
0
0
0
0
0
0
0
5.99407e-14
5.91913e-11
1.58418e-05
9.60366e-08
3.89763e-11
5.89406e-14
0
0
0
6.14288e-07
1.73418e-06
6.17046e-10
7.83341e-13
1.17421e-13
3.76289e-07
0.0198586
0.0256799
0.0305244
0.0340159
0.0350598
0.0321709
0.0243758
0.0129109
0.00356481
4.59079e-05
3.57983e-06
2.43251e-07
9.32621e-09
3.16128e-09
2.88432e-09
1.5506e-09
2.26418e-09
9.11423e-09
2.20642e-08
1.37153e-09
3.58714e-12
5.95026e-15
0
0
0
3.57742e-13
2.28389e-12
2.02258e-15
0
0
0
0
0
0
0
0
0
0
0
0
0
0
0
0
0
0
0
0
0
0
0
0
0
0
0
0
0
0
0
0
0
0
0
0
0
0
0
0
0
0
0
0
0
0
0
0
0
0
0
0
0
0
0
0
0
0
0
0
0
0
0
0
0
0
0
0
0
0
0
0
0
0
0
0
0.222236
0.214759
0.202034
0.180896
0.149332
0.113213
0.103587
0.000458107
0.000265662
1.20169e-06
3.86898e-05
0.000641416
0.00335922
0.000288035
6.14827e-05
7.34883e-06
1.82403e-07
1.96363e-09
2.35442e-11
8.66197e-13
1.86795e-14
2.95925e-15
0
0
0
0
0
0
0
0
0
0
1.52589e-13
2.71899e-06
9.73412e-09
5.13383e-12
3.20056e-15
0
0
0
6.69632e-08
8.89446e-08
2.10386e-12
2.47028e-15
0
0.000298134
0.020415
0.0258654
0.0296386
0.0309219
0.0287712
0.0223461
0.0130447
0.0054057
6.71069e-05
2.86835e-07
1.91959e-08
9.54596e-10
3.90174e-11
1.2403e-11
1.07319e-11
4.89149e-12
5.73334e-12
2.35779e-10
4.43261e-09
2.84362e-10
6.19519e-13
8.09667e-16
0
0
0
1.75777e-14
1.22628e-13
0
0
0
0
0
0
0
0
0
0
0
0
0
0
0
0
0
0
0
0
0
0
0
0
0
0
0
0
0
0
0
0
0
0
0
0
0
0
0
0
0
0
0
0
0
0
0
0
0
0
0
0
0
0
0
0
0
0
0
0
0
0
0
0
0
0
0
0
0
0
0
0
0
0
0
0
0
0.218668
0.211655
0.199932
0.180806
0.152804
0.121295
0.109462
0.106173
4.27753e-06
1.88822e-08
4.8182e-07
8.3345e-06
5.04702e-05
3.62853e-06
7.33613e-07
5.01497e-08
1.24156e-09
1.12997e-11
1.11591e-13
2.8513e-15
0
0
0
0
0
0
0
0
0
0
0
0