/*--------------------------------*- C++ -*----------------------------------*\
| =========                 |                                                 |
| \\      /  F ield         | OpenFOAM: The Open Source CFD Toolbox           |
|  \\    /   O peration     | Version:  2.1.0                                 |
|   \\  /    A nd           | Web:      www.OpenFOAM.org                      |
|    \\/     M anipulation  |                                                 |
\*---------------------------------------------------------------------------*/
FoamFile
{
    version     2.0;
    format      ascii;
    class       surfaceScalarField;
    location    "16060";
    object      phi_o;
}
// * * * * * * * * * * * * * * * * * * * * * * * * * * * * * * * * * * * * * //

dimensions      [1 -2 -2 0 0 0 0];

internalField   nonuniform List<scalar> 
29750
(
18.5873
18.623
11.2255
7.36573
7.81842
3.4721
6.08456
1.9386
5.13215
1.2538
4.55107
0.899639
4.16024
0.68902
3.87982
0.54993
3.67118
0.451103
3.51333
0.37709
3.3937
0.319423
3.30413
0.273087
3.239
0.234937
3.19427
0.202928
3.16687
0.175681
3.1544
0.152249
3.1549
0.131969
3.16669
0.114369
3.18836
0.099109
3.21861
0.0859425
3.2562
0.0746776
3.29988
0.0651535
3.34846
0.057233
3.4008
0.050789
3.45579
0.0456919
3.51246
0.041813
3.5699
0.0390258
3.62733
0.0372101
3.68406
0.036249
3.7395
0.0360336
3.79313
0.0364569
3.84451
0.0374203
3.89327
0.0388385
3.93911
0.0406456
3.9818
0.0427929
4.02112
0.0452374
4.05692
0.0479244
4.08908
0.0507839
4.11755
0.0537379
4.14239
0.0567132
4.16375
0.059629
4.18182
0.0623882
4.1969
0.064886
4.20941
0.0670182
4.21986
0.0686929
4.22884
0.0698339
4.23703
0.070384
4.24512
0.070291
4.25384
0.0695147
4.26395
0.0680365
4.2762
0.0658749
4.2913
0.0630852
4.30991
0.0597286
4.33258
0.0558715
4.35978
0.0516144
4.39191
0.0470839
4.42922
0.0424189
4.47183
0.0377468
4.51975
0.0331932
4.57288
0.0288967
4.63105
0.0249922
4.69395
0.0215831
4.76125
0.0187474
4.83261
0.0165505
4.90768
0.0150274
4.98619
0.0141825
5.068
0.0140019
5.15306
0.0144538
5.24153
0.0154915
5.33385
0.0170584
5.4308
0.0191436
5.53361
0.0217705
5.64408
0.0250055
5.76483
0.0290517
5.89963
0.0343371
6.05398
0.0416247
6.23559
0.0522674
6.45453
0.0686557
6.71964
0.0944488
7.01915
0.132622
7.26201
0.174009
7.27119
0.178216
7.07935
0.128671
6.90718
0.0851771
6.80349
0.0660983
6.73459
0.0570897
6.68079
0.0504849
6.63566
0.0442397
6.59746
0.0379623
6.56583
0.0315473
6.54087
0.0249287
6.52283
0.0180177
6.51206
0.0107374
6.50903
0.00302524
6.51424
-0.00523363
6.52835
-0.0141282
6.55211
-0.0237454
6.58636
-0.034243
6.63211
-0.0457781
6.6906
-0.058486
6.76318
-0.072566
6.85145
-0.0882735
6.95727
-0.10585
7.08284
-0.125552
7.23056
-0.147701
7.40322
-0.172649
7.60392
-0.200713
7.83608
-0.232165
8.10332
-0.267223
8.40928
-0.305963
8.75743
-0.348176
9.15066
-0.393237
9.59064
-0.439968
10.0771
-0.486482
10.6072
-0.530122
11.1749
-0.567688
11.7711
-0.596197
12.3855
-0.614314
13.0097
-0.624243
13.6429
-0.633216
14.296
-0.653089
14.9935
-0.697454
15.7716
-0.778153
16.6733
-0.901701
17.7378
-1.06446
18.9828
-1.24505
20.3777
-1.39488
21.8128
-1.43511
23.0962
-1.28337
24.0352
-0.939028
24.6032
-0.567975
24.8435
-0.24023
24.7973
0.0461167
24.4806
0.316736
23.8989
0.581694
23.0926
0.806277
22.1706
0.922078
21.1745
0.996096
20.0666
1.10787
18.777
1.28967
17.2583
1.51864
15.5219
1.73638
13.617
1.9049
11.6153
2.00172
9.58611
2.0292
7.57898
2.00715
5.61908
1.95992
3.71081
1.90828
1.84405
1.86677
1.84406
7.33012
11.2968
7.33192
7.40304
6.28492
4.67032
5.39976
3.09657
4.778
2.19789
4.34045
1.65351
4.02115
1.29873
3.78099
1.05202
3.59717
0.871208
3.45567
0.733019
3.34737
0.623788
3.26598
0.535067
3.20699
0.461421
3.16702
0.399237
3.14344
0.346047
3.13412
0.300136
3.1373
0.260285
3.15143
0.225624
3.1752
0.195523
3.20735
0.169521
3.24667
0.147259
3.29196
0.128437
3.34202
0.112788
3.3957
0.100063
3.45192
0.0900132
3.50967
0.0823992
3.56808
0.0769753
3.62637
0.0734978
3.68384
0.0717197
3.73992
0.071407
3.79409
0.0723438
3.84593
0.0743404
3.89508
0.0772403
3.94126
0.0809229
3.98424
0.0852927
4.02381
0.0902548
4.05978
0.0956947
4.09203
0.101486
4.12053
0.107491
4.14531
0.113553
4.16651
0.119494
4.18431
0.125114
4.19903
0.130205
4.21109
0.134565
4.221
0.138015
4.22939
0.140397
4.23693
0.141574
4.24434
0.141431
4.25237
0.139892
4.26179
0.136945
4.27341
0.132632
4.28795
0.127024
4.30605
0.120243
4.32832
0.112446
4.35525
0.103857
4.38724
0.0947268
4.42454
0.0853101
4.46728
0.0758751
4.51545
0.0667139
4.56898
0.0581015
4.62764
0.0502915
4.69111
0.0434995
4.75906
0.0379057
4.83109
0.033636
4.90684
0.0307709
4.98601
0.0293315
5.06845
0.0292958
5.15409
0.0305879
5.24309
0.0331154
5.33593
0.0368098
5.43342
0.0416418
5.53684
0.0476684
5.64813
0.05511
5.77011
0.0644478
5.90692
0.0765158
6.06462
0.0928276
6.25198
0.115915
6.48033
0.149685
6.75782
0.19885
7.06054
0.262945
7.26621
0.315385
7.22165
0.29676
7.03585
0.220941
6.8881
0.163531
6.79448
0.133637
6.72798
0.115728
6.67455
0.101698
6.62938
0.0888046
6.59104
0.0761366
6.55921
0.0633226
6.53396
0.0501291
6.51555
0.0363829
6.50434
0.0219278
6.50077
0.00657824
6.50535
-0.00983282
6.51873
-0.0274827
6.54161
-0.0466158
6.57482
-0.0674891
6.61941
-0.090362
6.67652
-0.115573
6.74748
-0.14354
6.83387
-0.1747
6.93757
-0.209533
7.06069
-0.248624
7.20562
-0.292627
7.37515
-0.342209
7.57246
-0.398023
7.80103
-0.460709
8.06458
-0.530785
8.36706
-0.608473
8.71237
-0.693492
9.10393
-0.784784
9.54413
-0.880157
10.0335
-0.975857
10.5697
-1.06632
11.1464
-1.1444
11.753
-1.20276
12.3755
-1.23682
13.0007
-1.24945
13.6231
-1.25553
14.2517
-1.28168
14.9128
-1.35858
15.6481
-1.51347
16.5106
-1.76421
17.5572
-2.11108
18.833
-2.52085
20.3375
-2.89932
21.9646
-3.06219
23.4406
-2.75936
24.4063
-1.90477
24.931
-1.09263
25.1298
-0.43905
25.068
0.107967
24.7456
0.639132
24.1235
1.20377
23.2084
1.72135
22.2446
1.88596
21.2863
1.95444
20.2484
2.14572
19.0059
2.53217
17.4761
3.04849
15.6905
3.52196
13.7139
3.88152
11.6428
4.0728
9.56406
4.10796
7.53175
4.03948
5.56744
3.92424
3.6693
3.80643
1.82133
3.71476
3.6654
3.43636
7.92456
4.5992
6.39065
4.71117
4.81665
4.50107
3.625
4.23362
2.78999
3.98567
2.206
3.77444
1.78728
3.60018
1.4772
3.45898
1.24007
3.34644
1.05333
3.25864
0.902456
3.19233
0.777895
3.14481
0.673199
3.11383
0.583941
3.09753
0.507017
3.09427
0.440227
3.10264
0.381988
3.12133
0.331156
3.14919
0.286899
3.18509
0.248607
3.22785
0.215791
3.27631
0.188035
3.32929
0.164972
3.38565
0.146256
3.4443
0.131541
3.50425
0.120479
3.56461
0.112702
3.62459
0.107831
3.68353
0.105488
3.74086
0.105311
3.79609
0.106967
3.84883
0.110172
3.89876
0.114701
3.94563
0.120388
3.9892
0.127095
4.02925
0.134686
4.06557
0.143009
4.09804
0.151889
4.12659
0.161123
4.15125
0.170467
4.17213
0.179641
4.1894
0.188334
4.20339
0.196227
4.21454
0.203016
4.22338
0.208422
4.23057
0.212198
4.23679
0.214116
4.2428
0.214005
4.24942
0.21176
4.25748
0.20735
4.2678
0.200826
4.28116
0.192296
4.29826
0.181943
4.31973
0.170041
4.34612
0.156923
4.37783
0.142966
4.41511
0.128574
4.45812
0.114174
4.50684
0.10021
4.56117
0.0871132
4.62085
0.0752735
4.68552
0.0650261
4.75479
0.0566694
4.82822
0.0504159
4.9054
0.046387
4.98598
0.0446177
5.06974
0.0450711
5.15662
0.0476438
5.24679
0.0521877
5.34076
0.0585909
5.43945
0.0668165
5.54429
0.0769938
5.65747
0.0895039
5.78218
0.10509
5.92323
0.125045
6.08771
0.15154
6.28575
0.188024
6.52949
0.239261
6.82191
0.30903
7.11298
0.388343
7.24759
0.429139
7.14583
0.37823
6.97844
0.292312
6.85821
0.233413
6.77657
0.198099
6.71395
0.17332
6.66166
0.152596
6.61671
0.133366
6.57823
0.114526
6.54602
0.0954881
6.52022
0.0759064
6.50109
0.0554997
6.48899
0.0340124
6.48436
0.011211
6.4877
-0.0131538
6.4996
-0.0393771
6.52074
-0.0677796
6.55195
-0.0987082
6.5942
-0.132589
6.64855
-0.169939
6.71632
-0.211331
6.79904
-0.257409
6.89848
-0.308942
7.01668
-0.366818
7.15603
-0.432002
7.31934
-0.505517
7.50978
-0.588447
7.73095
-0.681877
7.98689
-0.786744
8.28204
-0.903635
8.62108
-1.03251
9.00856
-1.17225
9.44843
-1.32003
9.94303
-1.47047
10.4916
-1.61487
11.088
-1.74085
11.7189
-1.83366
12.3629
-1.88076
12.9947
-1.88123
13.5969
-1.85778
14.1748
-1.8595
14.7579
-1.94172
15.3974
-2.15295
16.1637
-2.53056
17.1474
-3.0948
18.4545
-3.82793
20.1746
-4.61938
22.2674
-5.15498
24.2952
-4.78712
25.2184
-2.82804
25.5845
-1.45873
25.6768
-0.531297
25.5991
0.185672
25.3102
0.92806
24.6411
1.8729
23.3731
2.98941
22.3131
2.94595
21.4775
2.78999
20.6349
2.98838
19.5223
3.6448
17.9495
4.62119
16.05
5.42148
13.9051
6.02642
11.678
6.3
9.49557
6.29036
7.41651
6.11855
5.44963
5.89113
3.57764
5.67843
1.77196
5.52045
5.43737
1.90245
6.22473
3.0252
5.53958
3.51952
4.64053
3.66607
3.80519
3.64963
3.11777
3.56696
2.57567
3.46436
2.15147
3.36304
1.81675
3.27223
1.54859
3.19557
1.32998
3.13408
1.14868
3.08764
0.99597
3.05555
0.8656
3.03691
0.753095
3.03074
0.655208
3.03603
0.569574
3.0518
0.494465
3.07708
0.428613
3.1109
0.371098
3.15227
0.321222
3.20009
0.278418
3.25325
0.242205
3.31057
0.212154
3.37093
0.187851
3.43324
0.168877
3.49647
0.154778
3.55973
0.145067
3.62224
0.13922
3.68335
0.136711
3.74251
0.137027
3.79929
0.139706
3.85336
0.144366
3.90445
0.150724
3.95234
0.158578
3.99679
0.167771
4.03757
0.17815
4.07445
0.189547
4.10727
0.201745
4.13593
0.214476
4.16043
0.227402
4.18082
0.240122
4.1973
0.252207
4.21018
0.263222
4.21994
0.272751
4.22716
0.280395
4.23249
0.2858
4.23668
0.288648
4.24056
0.288695
4.24501
0.285803
4.25095
0.27992
4.25927
0.271088
4.27081
0.259461
4.28636
0.245308
4.30661
0.229014
4.33216
0.211042
4.36343
0.191901
4.40071
0.172157
4.44415
0.152426
4.49374
0.133317
4.54933
0.115426
4.6106
0.0993012
4.67716
0.085437
4.74853
0.0742507
4.82419
0.0660547
4.90363
0.0610273
4.98643
0.0592197
5.07231
0.0605615
5.16117
0.0649007
5.25319
0.0720251
5.34899
0.081769
5.44963
0.0940879
5.5568
0.109165
5.67305
0.127546
5.80214
0.150246
5.94972
0.179044
6.12419
0.21678
6.33699
0.267642
6.59926
0.336547
6.90122
0.423867
7.15377
0.505643
7.19668
0.51502
7.05991
0.436018
6.91954
0.351901
6.82289
0.296235
6.75179
0.258476
6.69323
0.228767
6.64243
0.202549
6.59787
0.177702
6.55919
0.153131
6.52644
0.128227
6.49981
0.102531
6.4796
0.0756926
6.46619
0.0474249
6.45999
0.017425
6.46147
-0.0146372
6.47119
-0.0491115
6.48981
-0.0863932
6.51807
-0.126957
6.55685
-0.171367
6.60716
-0.220269
6.67024
-0.274404
6.74751
-0.334648
6.84061
-0.402035
6.9515
-0.477733
7.08252
-0.563037
7.23641
-0.659392
7.41635
-0.768377
7.62608
-0.891621
7.87
-1.03067
8.15317
-1.18679
8.48134
-1.36064
8.86078
-1.55168
9.29798
-1.75724
9.79863
-1.97114
10.3656
-2.18183
10.9952
-2.37046
11.6718
-2.51028
12.3624
-2.57133
13.0181
-2.53694
13.5952
-2.43485
14.0925
-2.35684
14.5467
-2.39584
15.0198
-2.62605
15.5995
-3.11027
16.4143
-3.9096
17.6631
-5.07671
19.639
-6.5953
22.6353
-8.15124
26.2542
-8.4061
26.5877
-3.16152
26.512
-1.38296
26.3938
-0.413072
26.3415
0.237958
26.2551
1.01454
25.7576
2.37037
23.3296
5.41742
22.1571
4.11846
21.6759
3.27117
21.2913
3.37301
20.4986
4.43746
18.7498
6.36999
16.655
7.51637
14.1787
8.5027
11.6683
8.81039
9.32377
8.63491
7.18908
8.25324
5.23693
7.84328
3.41965
7.49571
1.68888
7.25123
7.12626
1.21731
5.30768
2.12615
4.95313
2.68418
4.4079
2.97865
3.82272
3.10753
3.27959
3.14275
2.80792
3.12965
2.40978
3.09489
2.07657
3.05362
1.7971
3.01427
1.561
2.98137
1.35965
2.95727
1.18629
2.94304
1.03571
2.93902
0.903975
2.94511
0.788103
2.96092
0.685856
2.98595
0.595564
3.01956
0.515993
3.06103
0.446232
3.10947
0.385564
3.16388
0.333409
3.22319
0.289281
3.28627
0.252739
3.35196
0.223344
3.41914
0.200624
3.48676
0.184036
3.55389
0.172959
3.61973
0.166716
3.68367
0.164592
3.74519
0.16589
3.80395
0.169995
3.85971
0.176424
3.9123
0.184846
3.96153
0.195049
4.00717
0.206893
4.04897
0.220249
4.08665
0.234957
4.12
0.250778
4.14886
0.267364
4.17315
0.284274
4.1929
0.300984
4.20831
0.316923
4.21971
0.331512
4.22759
0.344201
4.23256
0.354467
4.23533
0.361823
4.23673
0.365858
4.23767
0.366255
4.23913
0.3628
4.24212
0.355411
4.24765
0.344131
4.25666
0.329169
4.27006
0.310891
4.28864
0.289794
4.31302
0.266477
4.34369
0.241628
4.38098
0.215998
4.42504
0.190397
4.47585
0.165628
4.5332
0.14247
4.59674
0.121666
4.66597
0.103902
4.74034
0.0897463
4.81916
0.0796117
4.90182
0.0737541
4.98777
0.0722564
5.07665
0.0749945
5.16829
0.0817136
5.26293
0.0921057
5.36131
0.105929
5.46471
0.123126
5.57518
0.143905
5.69575
0.168956
5.83093
0.199674
5.98746
0.238376
6.17506
0.288594
6.40589
0.355123
6.68658
0.441999
6.983
0.541668
7.16315
0.607651
7.11768
0.573442
6.97579
0.480417
6.86388
0.404925
6.78513
0.353734
6.72208
0.31504
6.66701
0.282028
6.61758
0.251498
6.5733
0.221835
6.53429
0.192146
6.50074
0.161786
6.47297
0.130295
6.45134
0.0973389
6.43619
0.062586
6.42793
0.0256881
6.427
-0.0137109
6.43391
-0.0560162
6.44924
-0.101714
6.47366
-0.151375
6.50794
-0.205662
6.55302
-0.265351
6.60999
-0.331357
6.68012
-0.404768
6.76491
-0.486846
6.86619
-0.579038
6.98616
-0.683004
7.12742
-0.800641
7.29311
-0.934064
7.48703
-1.08556
7.71388
-1.2575
7.97932
-1.4522
8.2903
-1.67158
8.65522
-1.9166
9.08408
-2.18612
9.58794
-2.47501
10.177
-2.77086
10.8554
-3.0489
11.6108
-3.26569
12.3968
-3.35735
13.1202
-3.26033
13.6732
-2.98785
14.0535
-2.73716
14.3164
-2.65876
14.5355
-2.84515
14.8001
-3.37484
15.2472
-4.35664
16.1445
-5.97399
18.0831
-8.53389
22.3804
-12.4486
31.4988
-17.5245
28.3663
-30.1648
27.4819
-9.2018
27.0448
0.278095
27.1181
1.87697
27.6109
5.66932
28.8046
12.5898
22.0306
12.1914
21.3098
4.83931
21.7778
2.80322
22.3558
2.79504
22.4312
4.36204
19.8962
8.90495
17.6413
9.77132
14.4864
11.6576
11.4928
11.804
8.9421
11.1856
6.77913
10.4162
4.88935
9.73306
3.17518
9.20989
1.56391
8.86252
8.69017
0.862751
4.76472
1.58092
4.55315
2.099
4.19635
2.43552
3.77479
2.63585
3.3476
2.74462
2.94733
2.79643
2.58728
2.81542
2.26973
2.81752
1.99181
2.81292
1.7488
2.808
1.53572
2.80669
1.34813
2.81131
1.18226
2.82315
1.03505
2.84286
0.90406
2.87063
0.7874
2.90638
0.683628
2.9498
0.591661
3.00036
0.510672
3.05731
0.440005
3.11975
0.379143
3.18665
0.327657
3.25688
0.285157
3.32924
0.251228
3.40255
0.225374
3.47568
0.206979
3.54764
0.195285
3.61761
0.189408
3.68497
0.188396
3.7493
0.191314
3.81038
0.197356
3.86814
0.205928
3.92251
0.216663
3.97337
0.229385
4.02053
0.244029
4.06368
0.260554
4.10247
0.278841
4.13659
0.298647
4.16577
0.319558
4.18986
0.341
4.20884
0.362288
4.2229
0.382681
4.2324
0.401441
4.23785
0.417846
4.23992
0.431228
4.23937
0.440972
4.23712
0.446545
4.23421
0.447528
4.23174
0.443621
4.23084
0.434688
4.23268
0.420786
4.23838
0.402175
4.24896
0.379319
4.26532
0.352854
4.28817
0.323544
4.31806
0.292275
4.35538
0.260034
4.40027
0.227833
4.4527
0.196698
4.5124
0.167629
4.57897
0.141607
4.65182
0.119535
4.7302
0.102161
4.81331
0.0900459
4.90032
0.0835522
4.99051
0.0827725
5.08337
0.0875144
5.17868
0.0974003
5.27676
0.111973
5.37851
0.130832
5.48548
0.153825
5.60023
0.181232
5.72647
0.213957
5.86964
0.253798
6.03768
0.303721
6.24158
0.368075
6.49277
0.451946
6.78625
0.555981
7.04898
0.656698
7.12894
0.683922
7.02465
0.609718
6.9003
0.518801
6.81269
0.454157
6.74644
0.407405
6.68907
0.36875
6.63648
0.333578
6.58792
0.299746
6.54361
0.266096
6.50393
0.231841
6.46925
0.196439
6.44001
0.159533
6.41658
0.120792
6.39929
0.079876
6.38853
0.0364525
6.38469
-0.0098592
6.38821
-0.0595226
6.39958
-0.113081
6.41937
-0.171171
6.44826
-0.234547
6.48702
-0.304107
6.53658
-0.380918
6.59804
-0.466238
6.67272
-0.561542
6.76223
-0.668557
6.86853
-0.789299
6.994
-0.926114
7.14161
-1.08168
7.31509
-1.25904
7.51918
-1.46156
7.75994
-1.69292
8.04528
-1.95692
8.3857
-2.25705
8.79519
-2.59563
9.29208
-2.9719
9.89893
-3.37772
10.6386
-3.78861
11.5191
-4.14624
12.4938
-4.33203
13.3927
-4.15918
13.9239
-3.51906
14.1319
-2.94522
14.1301
-2.65687
14.0059
-2.72095
13.8183
-3.1873
13.6298
-4.16813
13.5846
-5.92872
14.1684
-9.11769
17.3045
-15.5846
18.8586
-20.6174
49.3293
-41.2338
36.9618
-32.6591
28.6437
-6.40251
30.9104
14.0433
34.5314
17.6074
28.4063
8.53392
14.6785
2.19033
19.2737
3.01727
21.7696
3.73262
23.9228
7.19812
26.9741
14.4666
20.7626
15.1165
19.5276
11.0064
14.6328
16.5524
10.8745
15.5622
8.17265
13.8875
6.09599
12.4929
4.36618
11.4629
2.82781
10.7483
1.39156
10.2988
10.0817
0.651176
4.41513
1.22412
4.27411
1.67745
4.02354
2.00832
3.70811
2.23558
3.36734
2.38457
3.02855
2.47888
2.70737
2.5375
2.41101
2.5745
2.14155
2.59985
1.89832
2.62042
1.6794
2.64082
1.48249
2.66409
1.30531
2.69216
1.1458
2.7262
1.00221
2.76686
0.87314
2.81441
0.757466
2.86881
0.654326
2.92969
0.563042
2.99645
0.483096
3.06827
0.414107
3.14415
0.355779
3.22295
0.307838
3.30339
0.269955
3.38416
0.241663
3.46399
0.222291
3.54177
0.210925
3.6166
0.206418
3.68788
0.207483
3.75534
0.212855
3.81895
0.221472
3.87887
0.232598
3.93523
0.245862
3.98802
0.261199
4.03706
0.278717
4.08196
0.298552
4.12228
0.320703
4.1575
0.344941
4.18721
0.370771
4.21114
0.397457
4.22924
0.424096
4.24166
0.449722
4.24881
0.473393
4.25124
0.494212
4.24966
0.511344
4.24494
0.524028
4.23811
0.531599
4.23031
0.533491
4.2228
0.529295
4.21694
0.518793
4.21407
0.502038
4.21553
0.479357
4.2225
0.451328
4.23601
0.418754
4.2569
0.382614
4.28582
0.344031
4.32318
0.304239
4.36914
0.264493
4.42363
0.226062
4.48638
0.190236
4.5569
0.15826
4.63444
0.131286
4.71809
0.11031
4.80681
0.0961173
4.89954
0.0892018
4.99525
0.0896746
5.09326
0.0972637
5.19325
0.111393
5.29562
0.131343
5.4015
0.156476
5.51289
0.186464
5.63295
0.221644
5.76631
0.263238
5.91956
0.313597
6.10203
0.376556
6.32546
0.457292
6.59681
0.559971
6.88696
0.676151
7.07621
0.755765
7.05474
0.727439
6.93374
0.633468
6.83566
0.555308
6.76594
0.501117
6.70778
0.458555
6.6539
0.420604
6.60265
0.384244
6.55427
0.348002
6.50936
0.31099
6.46852
0.27264
6.43234
0.232611
6.40127
0.190624
6.37567
0.146398
6.35587
0.0996666
6.34222
0.0501148
6.33503
-0.00266155
6.33466
-0.0591489
6.34149
-0.119923
6.356
-0.185677
6.3787
-0.257246
6.41021
-0.33562
6.45126
-0.421978
6.50273
-0.517724
6.5657
-0.624522
6.64149
-0.744344
6.73171
-0.879529
6.83843
-1.03284
6.96425
-1.20751
7.11257
-1.40734
7.28782
-1.63679
7.49594
-1.90104
7.74515
-2.20614
8.04711
-2.55903
8.41893
-2.96745
8.88626
-3.43923
9.48804
-3.97952
10.281
-4.58157
11.3334
-5.19864
12.6667
-5.66535
14.0328
-5.52532
14.4977
-3.98399
14.4203
-2.86779
14.066
-2.30255
13.5395
-2.19446
12.8375
-2.48528
11.8692
-3.19987
10.3956
-4.45507
7.70142
-6.42349
12.2717
-9.04321
-1.7578
-14.8776
57.9039
-6.66153
63.2184
-12.9992
49.0895
1.46429
34.4745
11.1476
25.4579
16.9873
22.0627
22.6476
15.5055
25.1338
19.9891
28.9009
25.2351
29.4771
31.1913
19.3315
27.6239
13.7179
16.6525
12.6878
25.0736
29.7083
13.6426
27.9834
9.19974
20.0051
6.77802
16.3092
5.06602
14.2049
3.65158
12.8773
2.37831
12.0216
1.17453
11.5026
11.2563
0.510152
4.17952
0.973555
4.07744
1.36201
3.89029
1.66756
3.64433
1.8968
3.36584
2.06338
3.07589
2.18253
2.789
2.26804
2.51399
2.33127
2.25552
2.38093
2.01552
2.42351
1.79433
2.46364
1.5914
2.50458
1.40581
2.54858
1.23646
2.59713
1.08234
2.65118
0.942532
2.71127
0.816296
2.77753
0.703009
2.84974
0.602198
2.92746
0.513547
3.00994
0.436878
3.09621
0.372106
3.18506
0.319159
3.27509
0.277879
3.36478
0.247904
3.45262
0.22855
3.53726
0.218717
3.61766
0.216904
3.69326
0.221344
3.76395
0.230281
3.83008
0.242262
3.89214
0.256366
3.95056
0.272266
4.00554
0.290142
4.05689
0.310442
4.10412
0.333621
4.14651
0.3599
4.18333
0.389105
4.2139
0.420625
4.23778
0.453476
4.25486
0.486454
4.26533
0.518303
4.26963
0.547816
4.26837
0.5739
4.26235
0.595562
4.25251
0.611894
4.24
0.622059
4.22611
0.625302
4.2123
0.621036
4.20019
0.608948
4.19139
0.589061
4.1875
0.561775
4.18993
0.52782
4.19987
0.488195
4.21832
0.444153
4.24603
0.397119
4.28343
0.34859
4.33071
0.3001
4.3878
0.253213
4.4544
0.209534
4.52993
0.170617
4.61347
0.137928
4.7039
0.112814
4.7999
0.0963715
4.90002
0.089289
5.00284
0.0917215
5.10739
0.103308
5.2132
0.123186
5.32075
0.150194
5.43149
0.183265
5.54807
0.221846
5.67455
0.266308
5.81667
0.318302
5.98252
0.381042
6.18277
0.459433
6.42813
0.559044
6.71299
0.679561
6.96658
0.792115
7.04788
0.819836
6.96077
0.742925
6.85558
0.653582
6.78147
0.591717
6.72337
0.546772
6.66983
0.50837
6.61754
0.471844
6.56641
0.435106
6.51725
0.397084
6.47101
0.357194
6.4285
0.315146
6.39036
0.270773
6.35705
0.223933
6.32894
0.174499
6.30632
0.122285
6.28944
0.0669935
6.27854
0.00823038
6.27388
-0.0544915
6.27574
-0.121778
6.28443
-0.194367
6.30032
-0.27314
6.32385
-0.359147
6.35552
-0.453648
6.39594
-0.558154
6.44588
-0.674471
6.5063
-0.804764
6.5784
-0.951633
6.66376
-1.11819
6.76442
-1.30817
6.88313
-1.52604
7.02357
-1.77722
7.19084
-2.06833
7.39226
-2.40758
7.63869
-2.80548
7.94714
-3.2759
8.34597
-3.83807
8.88598
-4.51955
9.66391
-5.35953
10.8667
-6.40141
12.8067
-7.60539
15.5741
-8.29277
15.6139
-4.02378
14.9855
-2.23942
14.1741
-1.49109
13.2487
-1.26907
12.1229
-1.3595
10.6141
-1.69099
8.42718
-2.26818
5.0817
-3.078
6.43729
-4.5286
6.4583
-7.08581
51.5662
-4.10463
77.6819
9.86163
58.7729
20.3733
40.3142
29.6064
31.1182
41.5825
24.5489
50.4482
19.2725
54.9204
20.5653
55.8314
15.0895
50.1843
25.5776
42.3363
26.5938
41.291
33.673
54.4065
23.3487
49.0384
5.66439
24.3508
5.50382
20.1657
4.67368
17.1393
3.73848
15.1401
2.79582
13.82
1.85931
12.9581
0.928261
12.4336
12.1845
0.408071
4.02017
0.786412
3.94124
1.11605
3.79354
1.38907
3.59345
1.60685
3.35884
1.77649
3.10567
1.90751
2.84643
2.00956
2.58997
2.09127
2.3421
2.15974
2.10631
2.22059
1.88447
2.27804
1.6774
2.33524
1.48525
2.39446
1.3078
2.45732
1.14467
2.52495
0.995441
2.59799
0.859674
2.67672
0.737009
2.76109
0.627211
2.85079
0.53021
2.94517
0.446095
3.04327
0.375074
3.14379
0.317384
3.24512
0.273167
3.34543
0.242285
3.44279
0.224113
3.53545
0.21737
3.6221
0.220064
3.70219
0.2297
3.77594
0.243717
3.84418
0.26004
3.90804
0.277496
3.96844
0.295906
4.02584
0.315908
4.08007
0.338566
4.13039
0.364907
4.17572
0.395533
4.21485
0.430356
4.24675
0.468573
4.27076
0.50882
4.28671
0.549439
4.29485
0.588747
4.29571
0.625227
4.29003
0.657591
4.27868
0.68473
4.26268
0.705594
4.24324
0.71913
4.22184
0.724324
4.20021
0.720331
4.1803
0.706665
4.16411
0.68331
4.15354
0.65073
4.1503
0.609857
4.15583
0.561999
4.17129
0.50874
4.1975
0.451834
4.23494
0.393089
4.28382
0.334378
4.34412
0.277609
4.41549
0.224697
4.49724
0.177549
4.58835
0.138054
4.68745
0.10803
4.79281
0.0890089
4.90245
0.0820285
5.01443
0.0874167
5.12727
0.104663
5.24021
0.132412
5.35382
0.168844
5.47007
0.21222
5.59253
0.261568
5.72654
0.317297
5.87941
0.3817
6.06091
0.459228
6.28238
0.555932
6.54865
0.675668
6.82554
0.804507
6.9943
0.879984
6.97097
0.838163
6.87142
0.744854
6.79371
0.674888
6.73652
0.628464
6.68497
0.591973
6.63331
0.55818
6.5808
0.523833
6.52838
0.487365
6.47736
0.448035
6.42896
0.405582
6.38412
0.359996
6.34352
0.311367
6.30761
0.259815
6.27672
0.205387
6.25103
0.147974
6.23068
0.0873267
6.21582
0.0230797
6.2066
-0.0452613
6.20315
-0.118327
6.20565
-0.196874
6.21432
-0.281797
6.22935
-0.374177
6.25101
-0.475313
6.27962
-0.586769
6.31559
-0.710435
6.35943
-0.848598
6.41185
-1.00404
6.47378
-1.18012
6.54655
-1.38093
6.63195
-1.61143
6.73246
-1.87774
6.85159
-2.18748
6.99437
-2.55038
7.16827
-2.97938
7.38498
-3.49261
7.66449
-4.11761
8.046
-4.90109
8.62204
-5.93559
9.66268
-7.44207
12.1193
-10.062
19.8431
-16.0166
17.3983
-17.359
15.7339
-8.29995
14.3961
-2.99374
13.1582
-0.481055
11.7914
0.108572
10.0369
0.796428
7.61735
1.73919
3.63111
0.908263
3.88008
-1.22675
9.43949
-2.72907
65.5325
25.0134
88.1936
45.3957
68.0059
40.5611
52.2904
45.3219
39.9838
53.8891
29.0211
61.4108
20.1836
63.7579
14.9182
61.0968
7.24147
57.8611
24.5323
63.1106
39.7093
64.2877
28.3048
55.3663
-1.33889
30.01
1.47926
22.7778
2.47749
19.1675
2.67439
16.9424
2.4184
15.396
1.9339
14.3045
1.33483
13.5571
0.6792
13.0892
12.8637
0.329141
3.91752
0.638709
3.85287
0.915958
3.73014
1.15446
3.56018
1.35368
3.35562
1.51725
3.12871
1.65105
2.88998
1.76169
2.64778
1.85548
2.40833
1.93791
2.17599
2.01352
1.95365
2.08589
1.7431
2.15779
1.54535
2.23133
1.36085
2.30809
1.18977
2.38918
1.03201
2.47532
0.887418
2.56692
0.755863
2.66409
0.63735
2.76668
0.532075
2.87415
0.440446
2.98558
0.363059
3.09957
0.300597
3.21424
0.253677
3.32726
0.222594
3.43605
0.206962
3.53814
0.205363
3.63174
0.215132
3.71621
0.232584
3.79226
0.253818
3.86164
0.275725
3.92645
0.296761
3.98844
0.317086
4.0485
0.338187
4.10641
0.362208
4.16102
0.391167
4.21054
0.42627
4.25306
0.467543
4.28699
0.513848
4.31138
0.563195
4.32602
0.613194
4.33133
0.661519
4.32807
0.706283
4.31717
0.746079
4.29954
0.779783
4.27621
0.80626
4.24844
0.8242
4.21785
0.832193
4.18655
0.829001
4.15694
0.813837
4.13153
0.786582
4.11267
0.747822
4.10244
0.698773
4.10257
0.641158
4.11438
0.577011
4.13875
0.508488
4.17623
0.437783
4.22705
0.367107
4.29121
0.298709
4.36834
0.234824
4.45774
0.177778
4.55833
0.130003
4.66843
0.0939276
4.78583
0.071756
4.90784
0.0651495
5.03167
0.0748016
5.15501
0.100062
5.27664
0.138861
5.39719
0.188273
5.51942
0.245395
5.64826
0.308498
5.79094
0.378094
5.95694
0.457556
6.15761
0.552829
6.40211
0.670056
6.67749
0.804582
6.90102
0.91152
6.95248
0.910456
6.87766
0.82331
6.80146
0.745894
6.74729
0.69825
6.70003
0.66571
6.65118
0.637837
6.59896
0.609527
6.54433
0.578194
6.48905
0.542549
6.43491
0.502152
6.38337
0.457118
6.33549
0.40785
6.29197
0.35486
6.25319
0.298589
6.21931
0.239264
6.19038
0.176883
6.16643
0.11126
6.14748
0.0420371
6.13353
-0.0313036
6.1246
-0.109402
6.12073
-0.193004
6.12194
-0.282996
6.12821
-0.38045
6.13955
-0.486654
6.15596
-0.603165
6.17742
-0.731886
6.20399
-0.875147
6.23576
-1.0358
6.27298
-1.21733
6.31605
-1.424
6.36564
-1.66102
6.42272
-1.93484
6.48868
-2.25346
6.56537
-2.62707
6.65503
-3.06904
6.75998
-3.59757
6.88101
-4.23866
7.0115
-5.03159
7.11556
-6.03966
7.04273
-7.36924
6.16474
-9.18404
18.5007
-11.5347
26.4573
-22.2805
21.0401
-22.5683
16.9088
-13.4355
13.7479
-3.29955
12.4793
4.06387
10.9796
5.36958
6.78642
1.83058
1.4961
0.0571966
2.37776
0.979873
37.1819
1.55314
85.9148
34.8934
83.359
47.9515
72.7667
51.1535
60.8575
57.231
47.5056
67.241
31.3681
77.5483
17.5225
77.6034
11.6825
66.9368
12.4909
57.0527
25.7094
49.8921
30.788
39.2128
2.94852
18.5007
-8.57114
10.686
-2.13107
16.3378
0.252464
16.784
1.12799
16.0669
1.32684
15.1972
1.18655
14.4448
0.866927
13.8767
0.453704
13.5024
13.3174
0.264493
3.8609
0.515973
3.80505
0.745997
3.69786
0.94991
3.54702
1.12677
3.36192
1.27852
3.15226
1.40886
2.92708
1.52224
2.69416
1.62313
2.45983
1.71557
2.22898
1.80297
2.00518
1.88813
1.79092
1.97329
1.58779
2.06024
1.39677
2.15034
1.21832
2.24459
1.05257
2.34377
0.899561
2.4484
0.759327
2.55882
0.632083
2.67505
0.518285
2.79676
0.418694
2.92311
0.334372
3.05265
0.266625
3.18315
0.216808
3.31163
0.185987
3.43445
0.174393
3.54791
0.180675
3.64919
0.201278
3.73744
0.230522
3.81417
0.26215
3.88267
0.291253
3.94677
0.315766
4.00954
0.336553
4.07252
0.356647
4.13537
0.380065
4.19612
0.410488
4.25182
0.45009
4.29937
0.498985
4.33634
0.555417
4.36138
0.61632
4.37435
0.678067
4.37609
0.737335
4.36787
0.791813
4.35087
0.840207
4.32602
0.881654
4.29415
0.915075
4.25643
0.93885
4.21466
0.950938
4.17139
0.949381
4.12969
0.932886
4.09277
0.901166
4.06362
0.855014
4.04483
0.796135
4.03843
0.72684
4.04586
0.649726
4.06805
0.567459
4.10555
0.482696
4.15865
0.398011
4.22732
0.315922
4.31129
0.238993
4.40997
0.169972
4.52226
0.111905
4.64626
0.0680578
4.77923
0.0417208
4.91749
0.035681
5.05694
0.051349
5.19381
0.0880583
5.32606
0.142727
5.45432
0.210488
5.58252
0.286377
5.71786
0.36746
5.87041
0.454455
6.05221
0.552115
6.27484
0.667672
6.53664
0.802155
6.78443
0.92483
6.89995
0.956619
6.86533
0.882224
6.80024
0.799258
6.75381
0.750157
6.71475
0.722805
6.67216
0.703845
6.62287
0.685812
6.56763
0.664385
6.50869
0.637016
6.44866
0.602544
6.38988
0.560925
6.33411
0.51286
6.2825
0.459411
6.23569
0.401662
6.19386
0.340435
6.15693
0.276185
6.12476
0.209033
6.09721
0.138812
6.07414
0.0651175
6.05543
-0.0126015
6.041
-0.0949799
6.03074
-0.18274
6.02448
-0.276733
6.02201
-0.377974
6.02304
-0.487679
6.02723
-0.607339
6.03416
-0.738789
6.04334
-0.884304
6.05423
-1.04669
6.06631
-1.2294
6.07902
-1.43671
6.09182
-1.67383
6.1041
-1.94714
6.11507
-2.26444
6.1234
-2.6354
6.1265
-3.07215
6.1189
-3.58998
6.08807
-4.20784
6.00343
-4.94696
5.78598
-5.82221
5.22793
-6.8112
3.81409
-7.77021
7.75491
-8.32839
26.1696
-12.972
30.1728
-10.2198
27.0447
-1.36385
21.1113
-0.568675
13.785
3.53193
7.44064
8.72125
5.01304
16.3472
2.41877
25.3322
2.95103
39.4029
70.5222
66.0485
98.9729
74.3309
86.561
60.3633
78.8442
58.8702
70.8676
65.2076
57.8128
80.2957
31.4233
103.938
6.85591
102.171
1.79847
71.9943
5.3303
53.5209
15.0301
40.1923
10.0759
27.2572
-4.8662
15.0258
-2.91933
13.5616
-1.68489
15.1034
-0.464554
15.5636
0.258247
15.3441
0.574433
14.881
0.618505
14.4007
0.492619
14.0026
0.268691
13.7264
13.5861
0.208638
3.84464
0.408785
3.79385
0.59516
3.69562
0.764809
3.55574
0.917112
3.38162
1.05333
3.18136
1.17593
2.96302
1.28791
2.73403
1.39229
2.50083
1.49177
2.26871
1.5887
2.04173
1.685
1.82285
1.78227
1.61408
1.88178
1.4166
1.98459
1.23102
2.09158
1.05757
2.20353
0.89632
2.32116
0.747402
2.44502
0.611143
2.57546
0.488209
2.71244
0.379713
2.85537
0.287274
3.00283
0.21299
3.15233
0.159295
3.30003
0.128598
3.44073
0.122476
3.56851
0.140276
3.67844
0.177478
3.76907
0.224862
3.84327
0.271871
3.90719
0.310288
3.96756
0.337462
4.02964
0.355721
4.09594
0.37084
4.16579
0.390048
4.23573
0.41981
4.30071
0.463838
4.3558
0.522163
4.39724
0.591839
4.42313
0.667979
4.43361
0.74484
4.43057
0.817406
4.41626
0.882952
4.39232
0.940849
4.35944
0.991153
4.31793
1.03319
4.26852
1.06487
4.2131
1.08304
4.15489
1.08445
4.09797
1.06692
4.04661
1.02997
4.00474
0.974794
3.97553
0.903863
3.96131
0.820351
3.96359
0.727668
3.98329
0.629151
4.02087
0.527929
4.07657
0.426905
4.15039
0.328792
4.24227
0.236378
4.3519
0.152792
4.47841
0.0817172
4.61992
0.0275232
4.77319
-0.00491255
4.93316
-0.0107321
5.09364
0.0133444
5.24848
0.0667145
5.39382
0.144738
5.53021
0.239243
5.6636
0.341685
5.80485
0.446807
5.96807
0.555517
6.16777
0.674109
6.40932
0.806826
6.65931
0.932794
6.81622
0.981149
6.82556
0.916948
6.78237
0.829604
6.75114
0.778232
6.72646
0.755778
6.69579
0.747414
6.65413
0.743654
6.60144
0.73795
6.54026
0.725409
6.47421
0.703
6.40704
0.669692
6.34181
0.626121