/*--------------------------------*- C++ -*----------------------------------*\
| =========                 |                                                 |
| \\      /  F ield         | OpenFOAM: The Open Source CFD Toolbox           |
|  \\    /   O peration     | Version:  2.1.0                                 |
|   \\  /    A nd           | Web:      www.OpenFOAM.org                      |
|    \\/     M anipulation  |                                                 |
\*---------------------------------------------------------------------------*/
FoamFile
{
    version     2.0;
    format      ascii;
    class       volScalarField;
    location    "16060";
    object      pw;
}
// * * * * * * * * * * * * * * * * * * * * * * * * * * * * * * * * * * * * * //

dimensions      [1 -1 -2 0 0 0 0];

internalField   nonuniform List<scalar> 
15000
(
6754.49
6735.91
6724.68
6716.86
6710.78
6705.65
6701.09
6696.93
6693.05
6689.38
6685.87
6682.48
6679.17
6675.93
6672.74
6669.57
6666.42
6663.26
6660.1
6656.91
6653.69
6650.43
6647.13
6643.78
6640.38
6636.93
6633.42
6629.85
6626.22
6622.53
6618.79
6615
6611.16
6607.26
6603.32
6599.34
6595.32
6591.27
6587.18
6583.06
6578.92
6574.75
6570.57
6566.37
6562.16
6557.94
6553.72
6549.48
6545.23
6540.98
6536.72
6532.44
6528.15
6523.84
6519.51
6515.15
6510.75
6506.32
6501.85
6497.33
6492.76
6488.13
6483.44
6478.67
6473.84
6468.93
6463.95
6458.88
6453.73
6448.48
6443.15
6437.72
6432.19
6426.54
6420.78
6414.88
6408.82
6402.59
6396.13
6389.41
6382.4
6375.13
6367.86
6360.78
6353.88
6347.07
6340.34
6333.66
6327.02
6320.42
6313.86
6307.32
6300.79
6294.28
6287.77
6281.26
6274.73
6268.18
6261.59
6254.96
6248.27
6241.51
6234.65
6227.7
6220.61
6213.38
6205.98
6198.38
6190.54
6182.44
6174.03
6165.27
6156.12
6146.53
6136.45
6125.84
6114.67
6102.9
6090.51
6077.5
6063.86
6049.56
6034.57
6018.8
6002.13
5984.39
5965.41
5945.03
5923.22
5900.12
5876.08
5851.48
5826.64
5801.84
5777.36
5753.46
5730.37
5708.2
5687.02
5666.96
5648.18
5630.92
5615.4
5601.78
5590.17
5580.58
5573
5567.38
5563.67
5561.83
6735.87
6728.54
6721.21
6714.92
6709.52
6704.75
6700.41
6696.38
6692.6
6689.01
6685.55
6682.2
6678.94
6675.73
6672.56
6669.42
6666.29
6663.15
6660
6656.82
6653.61
6650.37
6647.08
6643.73
6640.34
6636.89
6633.38
6629.81
6626.18
6622.5
6618.76
6614.96
6611.12
6607.22
6603.28
6599.3
6595.27
6591.21
6587.12
6583
6578.86
6574.69
6570.51
6566.31
6562.1
6557.87
6553.65
6549.41
6545.16
6540.91
6536.65
6532.38
6528.09
6523.78
6519.45
6515.1
6510.71
6506.29
6501.82
6497.3
6492.74
6488.11
6483.42
6478.66
6473.83
6468.92
6463.93
6458.87
6453.71
6448.47
6443.13
6437.7
6432.16
6426.51
6420.74
6414.84
6408.77
6402.52
6396.04
6389.28
6382.22
6374.95
6367.73
6360.7
6353.81
6347.01
6340.29
6333.61
6326.98
6320.39
6313.83
6307.3
6300.78
6294.28
6287.78
6281.27
6274.75
6268.21
6261.64
6255.02
6248.34
6241.59
6234.76
6227.82
6220.76
6213.56
6206.18
6198.61
6190.81
6182.74
6174.38
6165.66
6156.56
6147.02
6136.98
6126.41
6115.27
6103.51
6091.14
6078.14
6064.51
6050.26
6035.35
6019.7
6003.19
5985.63
5966.8
5946.46
5924.5
5901.06
5876.65
5851.72
5826.59
5801.52
5776.78
5752.65
5729.45
5707.2
5685.91
5665.67
5646.66
5629.18
5613.49
5599.78
5588.14
5578.57
5571.04
5565.47
5561.8
5559.98
6724.57
6721.14
6716.54
6711.83
6707.33
6703.09
6699.11
6695.33
6691.73
6688.27
6684.93
6681.67
6678.48
6675.33
6672.22
6669.12
6666.03
6662.92
6659.8
6656.65
6653.47
6650.24
6646.96
6643.63
6640.25
6636.8
6633.3
6629.74
6626.11
6622.43
6618.69
6614.89
6611.04
6607.14
6603.2
6599.21
6595.18
6591.11
6587.01
6582.89
6578.74
6574.56
6570.38
6566.17
6561.96
6557.73
6553.5
6549.27
6545.02
6540.77
6536.52
6532.25
6527.97
6523.67
6519.35
6515
6510.63
6506.21
6501.75
6497.25
6492.68
6488.06
6483.38
6478.62
6473.8
6468.89
6463.9
6458.83
6453.68
6448.43
6443.09
6437.65
6432.11
6426.45
6420.67
6414.74
6408.66
6402.37
6395.84
6389.02
6381.91
6374.66
6367.51
6360.53
6353.68
6346.9
6340.19
6333.52
6326.91
6320.33
6313.78
6307.26
6300.76
6294.27
6287.79
6281.3
6274.8
6268.28
6261.73
6255.13
6248.49
6241.77
6234.97
6228.07
6221.05
6213.9
6206.58
6199.07
6191.34
6183.35
6175.07
6166.45
6157.44
6147.99
6138.05
6127.56
6116.47
6104.75
6092.39
6079.39
6065.8
6051.62
6036.86
6021.47
6005.3
5988.15
5969.7
5949.53
5927.26
5902.96
5877.74
5852.16
5826.48
5800.88
5775.57
5750.93
5727.56
5705.25
5683.77
5663.13
5643.61
5625.66
5609.61
5595.71
5584.03
5574.53
5567.12
5561.67
5558.09
5556.32
6716.65
6714.75
6711.72
6708.2
6704.54
6700.89
6697.32
6693.86
6690.49
6687.22
6684.02
6680.89
6677.8
6674.75
6671.71
6668.68
6665.64
6662.59
6659.51
6656.4
6653.25
6650.05
6646.8
6643.49
6640.12
6636.68
6633.19
6629.63
6626.01
6622.32
6618.58
6614.78
6610.93
6607.02
6603.07
6599.07
6595.04
6590.96
6586.85
6582.72
6578.56
6574.38
6570.18
6565.97
6561.75
6557.52
6553.29
6549.05
6544.81
6540.57
6536.32
6532.06
6527.79
6523.5
6519.19
6514.86
6510.5
6506.1
6501.65
6497.16
6492.61
6488
6483.32
6478.57
6473.75
6468.85
6463.86
6458.79
6453.63
6448.37
6443.02
6437.57
6432.02
6426.34
6420.54
6414.59
6408.47
6402.13
6395.53
6388.63
6381.48
6374.28
6367.22
6360.3
6353.48
6346.73
6340.03
6333.39
6326.79
6320.23
6313.71
6307.21
6300.73
6294.26
6287.8
6281.34
6274.87
6268.38
6261.86
6255.3
6248.7
6242.03
6235.28
6228.44
6221.49
6214.4
6207.17
6199.75
6192.13
6184.26
6176.1
6167.62
6158.76
6149.46
6139.66
6129.3
6118.3
6106.63
6094.27
6081.25
6067.66
6053.56
6039.02
6024
6008.4
5991.98
5974.32
5954.68
5932.05
5905.79
5879.2
5852.69
5826.3
5799.96
5773.7
5747.94
5724.61
5702.46
5680.78
5659.49
5638.99
5620.24
5603.59
5589.41
5577.74
5568.41
5561.23
5555.99
5552.57
5550.88
6710.42
6709.21
6707.08
6704.4
6701.42
6698.31
6695.17
6692.04
6688.94
6685.89
6682.88
6679.89
6676.94
6673.99
6671.06
6668.11
6665.15
6662.16
6659.14
6656.08
6652.97
6649.81
6646.59
6643.3
6639.95
6636.53
6633.04
6629.49
6625.87
6622.18
6618.44
6614.64
6610.78
6606.86
6602.9
6598.89
6594.85
6590.76
6586.64
6582.49
6578.32
6574.12
6569.92
6565.7
6561.47
6557.24
6553
6548.76
6544.53
6540.29
6536.05
6531.8
6527.54
6523.27
6518.98
6514.67
6510.33
6505.94
6501.52
6497.04
6492.51
6487.91
6483.25
6478.51
6473.69
6468.79
6463.8
6458.72
6453.55
6448.29
6442.93
6437.46
6431.89
6426.19
6420.36
6414.38
6408.2
6401.79
6395.11
6388.12
6380.96
6373.84
6366.87
6360
6353.22
6346.5
6339.83
6333.21
6326.64
6320.1
6313.6
6307.13
6300.68
6294.24
6287.82
6281.39
6274.95
6268.51
6262.03
6255.52
6248.97
6242.36
6235.68
6228.92
6222.05
6215.06
6207.94
6200.64
6193.16
6185.44
6177.46
6169.17
6160.52
6151.43
6141.85
6131.67
6120.81
6109.2
6096.81
6083.69
6070.01
6055.96
6041.64
6027.11
6012.31
5997.06
5980.91
5962.83
5940.45
5908.95
5880.59
5853.1
5826.06
5798.94
5771.33
5742.53
5720.5
5699.19
5677.41
5655.05
5632.62
5612.72
5595.08
5580.6
5569.1
5560.16
5553.38
5548.49
5545.32
5543.75
6705.12
6704.25
6702.67
6700.57
6698.14
6695.5
6692.76
6689.96
6687.15
6684.33
6681.52
6678.71
6675.9
6673.09
6670.27
6667.42
6664.55
6661.65
6658.7
6655.7
6652.64
6649.52
6646.33
6643.08
6639.75
6636.34
6632.87
6629.32
6625.7
6622.02
6618.27
6614.46
6610.59
6606.67
6602.7
6598.67
6594.61
6590.51
6586.37
6582.21
6578.02
6573.81
6569.58
6565.35
6561.11
6556.87
6552.63
6548.4
6544.16
6539.93
6535.7
6531.47
6527.23
6522.98
6518.72
6514.43
6510.11
6505.75
6501.35
6496.9
6492.39
6487.81
6483.16
6478.43
6473.61
6468.71
6463.72
6458.64
6453.46
6448.18
6442.81
6437.32
6431.72
6425.99
6420.12
6414.09
6407.85
6401.35
6394.57
6387.52
6380.39
6373.36
6366.46
6359.65
6352.9
6346.22
6339.58
6332.99
6326.45
6319.94
6313.47
6307.03
6300.62
6294.22
6287.83
6281.44
6275.06
6268.66
6262.24
6255.79
6249.3
6242.77
6236.17
6229.49
6222.73
6215.86
6208.87
6201.73
6194.41
6186.89
6179.13
6171.09
6162.7
6153.91
6144.62
6134.72
6124.08
6112.56
6100.07
6086.67
6072.75
6058.62
6044.49
6030.48
6016.66
6003.03
5989.45
5975.28
5957.98
5939.12
5889.79
5852.83
5824.18
5793.27
5758.74
5730.33
5715.66
5696.38
5674.61
5650.69
5623.72
5602.95
5583.43
5568.79
5557.92
5549.75
5543.65
5539.28
5536.46
5535.06
6700.35
6699.7
6698.48
6696.8
6694.79
6692.56
6690.17
6687.69
6685.15
6682.58
6679.98
6677.36
6674.72
6672.06
6669.36
6666.64
6663.87
6661.06
6658.19
6655.26
6652.26
6649.19
6646.05
6642.83
6639.52
6636.14
6632.67
6629.13
6625.52
6621.83
6618.07
6614.25
6610.37
6606.44
6602.45
6598.41
6594.33
6590.21
6586.05
6581.87
6577.65
6573.42
6569.18
6564.93
6560.68
6556.43
6552.19
6547.95
6543.72
6539.5
6535.28
6531.07
6526.85
6522.63
6518.39
6514.14
6509.85
6505.53
6501.16
6496.73
6492.25
6487.69
6483.06
6478.34
6473.53
6468.63
6463.64
6458.54
6453.35
6448.05
6442.65
6437.14
6431.51
6425.74
6419.82
6413.72
6407.39
6400.8
6393.91
6386.83
6379.78
6372.84
6366.01
6359.24
6352.54
6345.88
6339.28
6332.72
6326.22
6319.75
6313.31
6306.91
6300.54
6294.18
6287.84
6281.5
6275.17
6268.83
6262.47
6256.09
6249.68
6243.23
6236.73
6230.16
6223.52
6216.79
6209.95
6202.99
6195.88
6188.59
6181.09
6173.35
6165.3
6156.88
6147.99
6138.51
6128.22
6116.89
6104.22
6090.19
6075.69
6061.27
6047.21
6033.67
6020.83
6008.96
5998.57
5990.86
5978.59
5980.35
5922.45
5859.23
5810.14
5775.66
5750.21
5728.14
5712.64
5692.65
5667.41
5636.22
5608.6
5591.95
5566.87
5553.23
5544.03
5537.25
5532.19
5528.54
5526.16
5524.98
6695.94
6695.43
6694.45
6693.09
6691.42
6689.53
6687.46
6685.28
6683.01
6680.68
6678.3
6675.88
6673.41
6670.91
6668.36
6665.76
6663.11
6660.4
6657.62
6654.77
6651.85
6648.84
6645.74
6642.56
6639.28
6635.92
6632.46
6628.93
6625.31
6621.61
6617.85
6614.02
6610.13
6606.18
6602.17
6598.12
6594.01
6589.86
6585.68
6581.47
6577.23
6572.97
6568.71
6564.44
6560.17
6555.91
6551.66
6547.42
6543.19
6538.98
6534.78
6530.59
6526.4
6522.21
6518.01
6513.79
6509.55
6505.26
6500.93
6496.54
6492.09
6487.56
6482.95
6478.24
6473.44
6468.54
6463.54
6458.43
6453.22
6447.9
6442.47
6436.92
6431.24
6425.43
6419.44
6413.26
6406.83
6400.12
6393.15
6386.11
6379.15
6372.29
6365.51
6358.78
6352.11
6345.5
6338.93
6332.41
6325.94
6319.51
6313.12
6306.77
6300.44
6294.13
6287.84
6281.56
6275.29
6269.01
6262.73
6256.43
6250.11
6243.75
6237.35
6230.91
6224.4
6217.82
6211.16
6204.4
6197.51
6190.49
6183.3
6175.91
6168.27
6160.32
6151.97
6143.09
6133.42
6122.56
6109.75
6094.18
6078.56
6063.58
6049.4
6036.15
6024.03
6013.42
6004.99
5999.91
5993.47
5987.01
5935.45
5857.76
5798.99
5758.68
5727.56
5703.01
5683.74
5663.17
5648.08
5622.51
5595.91
5562.24
5538.89
5533.23
5527.72
5523.05
5519.31
5516.51
5514.65
5513.73
6691.76
6691.35
6690.56
6689.45
6688.06
6686.45
6684.67
6682.77
6680.76
6678.67
6676.51
6674.29
6672.01
6669.67
6667.28
6664.82
6662.3
6659.7
6657.02
6654.26
6651.41
6648.46
6645.42
6642.28
6639.03
6635.69
6632.24
6628.71
6625.09
6621.38
6617.61
6613.76
6609.86
6605.89
6601.86
6597.78
6593.65
6589.48
6585.26
6581.01
6576.74
6572.46
6568.16
6563.87
6559.58
6555.3
6551.03
6546.79
6542.57
6538.37
6534.19
6530.03
6525.87
6521.72
6517.57
6513.39
6509.2
6504.96
6500.68
6496.33
6491.92
6487.42
6482.83
6478.15
6473.35
6468.45
6463.44
6458.31
6453.07
6447.71
6442.24
6436.65
6430.93
6425.05
6418.98
6412.7
6406.15
6399.33
6392.33
6385.36
6378.49
6371.7
6364.96
6358.28
6351.64
6345.06
6338.53
6332.06
6325.63
6319.24
6312.9
6306.59
6300.32
6294.06
6287.83
6281.62
6275.41
6269.21
6263
6256.79
6250.56
6244.31
6238.03
6231.71
6225.35
6218.94
6212.47
6205.92
6199.29
6192.56
6185.71
6178.71
6171.54
6164.16
6156.49
6148.45
6139.82
6130.16
6118.04
6098.2
6080.8
6065.07
6050.67
6037.51
6025.72
6015.69
6008.07
6004.44
6000.56
5991.12
5925.58
5837.39
5769.38
5717.09
5677.11
5648.09
5627.91
5612.99
5605.75
5581.21
5541.5
5513.2
5514.54
5513.06
5510.58
5507.91
5505.49
5503.56
5502.22
5501.54
6687.74
6687.41
6686.77
6685.85
6684.7
6683.35
6681.83
6680.18
6678.42
6676.56
6674.62
6672.61
6670.52
6668.37
6666.13
6663.83
6661.44
6658.96
6656.39
6653.73
6650.96
6648.09
6645.1
6642
6638.79
6635.46
6632.03
6628.49
6624.86
6621.14
6617.35
6613.49
6609.56
6605.57
6601.52
6597.42
6593.26
6589.05
6584.79
6580.51
6576.19
6571.87
6567.54
6563.21
6558.89
6554.59
6550.32
6546.07
6541.85
6537.66
6533.51
6529.37
6525.26
6521.16
6517.06
6512.94
6508.8
6504.63
6500.4
6496.11
6491.74
6487.28
6482.72
6478.06
6473.27
6468.36
6463.33
6458.18
6452.9
6447.5
6441.98
6436.33
6430.54
6424.59
6418.43
6412.03
6405.35
6398.45
6391.5
6384.62
6377.82
6371.07
6364.37
6357.72
6351.12
6344.57
6338.09
6331.65
6325.27
6318.93
6312.64
6306.39
6300.17
6293.98
6287.81
6281.66
6275.53
6269.41
6263.28
6257.16
6251.03
6244.89
6238.74
6232.56
6226.36
6220.12
6213.85
6207.53
6201.17
6194.74
6188.26
6181.69
6175.04
6168.28
6161.39
6154.38
6147.27
6140.22
6134.06
6115.56
6089.1
6068.06
6051.15
6037.4
6024.93
6013.95
6007.16
6005.66
6003.29
5966.1
5880.19
5796.83
5724.06
5663.21
5615.7
5584.33
5566.81
5555.13
5542.64
5516.93
5486.14
5483.19
5491.76
5493.89
5493.64
5492.51
5491.18
5490
5489.13
5488.68
6683.82
6683.56
6683.04
6682.29
6681.34
6680.22
6678.94
6677.53
6676.01
6674.38
6672.67
6670.87
6668.98
6667
6664.94
6662.79
6660.55
6658.21
6655.76
6653.2
6650.52
6647.73
6644.8
6641.75
6638.57
6635.26
6631.82
6628.27
6624.62
6620.89
6617.07
6613.19
6609.24
6605.23
6601.16
6597.03
6592.83
6588.58
6584.28
6579.94
6575.58
6571.21
6566.83
6562.46
6558.11
6553.79
6549.49
6545.23
6541.02
6536.85
6532.72
6528.63
6524.56
6520.52
6516.48
6512.43
6508.37
6504.26
6500.1
6495.87
6491.56
6487.15
6482.63
6477.98
6473.21
6468.29
6463.23
6458.04
6452.71
6447.26
6441.67
6435.96
6430.09
6424.03
6417.76
6411.22
6404.44
6397.54
6390.67
6383.87
6377.12
6370.4
6363.73
6357.11
6350.54
6344.03
6337.58
6331.19
6324.86
6318.58
6312.34
6306.15
6299.99
6293.87
6287.77
6281.69
6275.64
6269.6
6263.57
6257.54
6251.52
6245.5
6239.47
6233.44
6227.39
6221.34
6215.27
6209.19
6203.1
6197
6190.88
6184.76
6178.63
6172.51
6166.43
6160.42
6154.64
6149.41
6145.59
6137.84
6111.67
6081.5
6054.45
6033.34
6019.56
6012.12
6007.1
6004.68
6001.73
5931.21
5832.24
5745.68
5666.83
5595.96
5538.15
5506.73
5499.87
5498.07
5492.74
5477.71
5467.64
5472.5
5475.42
5477.11
5477.57
5477.31
5476.74
5476.12
5475.63
5475.36
6679.96
6679.75
6679.34
6678.75
6677.98
6677.06
6676.01
6674.84
6673.55
6672.16
6670.66
6669.07
6667.39
6665.61
6663.73
6661.74
6659.65
6657.45
6655.12
6652.68
6650.1
6647.39
6644.54
6641.53
6638.38
6635.08
6631.64
6628.07
6624.39
6620.62
6616.78
6612.87
6608.91
6604.88
6600.78
6596.62
6592.38
6588.08
6583.72
6579.33
6574.9
6570.47
6566.04
6561.62
6557.23
6552.87
6548.55
6544.28
6540.07
6535.92
6531.82
6527.77
6523.77
6519.79
6515.83
6511.87
6507.88
6503.86
6499.79
6495.64
6491.39
6487.04
6482.56
6477.94
6473.17
6468.24
6463.14
6457.89
6452.5
6446.97
6441.31
6435.5
6429.53
6423.37
6416.96
6410.3
6403.48
6396.66
6389.87
6383.12
6376.4
6369.7
6363.05
6356.44
6349.9
6343.43
6337.02
6330.68
6324.4
6318.18
6312
6305.87
6299.78
6293.73
6287.7
6281.71
6275.73
6269.78
6263.84
6257.92
6252.01
6246.11
6240.21
6234.32
6228.44
6222.57
6216.71
6210.87
6205.05
6199.26
6193.52
6187.83
6182.22
6176.72
6171.37
6166.24
6161.45
6157.18
6153.92
6150.81
6121.89
6082.86
6055.02
6029.81
6010.83
5995.77
5981.77
5965.28
5935.68
5856.88
5771.87
5686.81
5601.62
5515.67
5434.21
5404.56
5427.88
5444.55
5452.55
5450.46
5452.61
5458.94
5460.32
5461.54
5462.23
5462.43
5462.34
5462.12
5461.9
5461.77
6676.11
6675.96
6675.65
6675.19
6674.6
6673.88
6673.05
6672.1
6671.05
6669.89
6668.62
6667.25
6665.78
6664.19
6662.49
6660.68
6658.75
6656.7
6654.51
6652.19
6649.72
6647.1
6644.32
6641.37
6638.25
6634.96
6631.5
6627.89
6624.17
6620.35
6616.47
6612.54
6608.55
6604.51
6600.39
6596.2
6591.92
6587.56
6583.13
6578.66
6574.16
6569.65
6565.16
6560.68
6556.24
6551.84
6547.49
6543.2
6538.99
6534.85
6530.79
6526.8
6522.86
6518.97
6515.1
6511.24
6507.36
6503.44
6499.46
6495.4
6491.24
6486.96
6482.54
6477.95
6473.18
6468.22
6463.08
6457.75
6452.26
6446.63
6440.86
6434.95
6428.86
6422.56
6416.02
6409.32
6402.56
6395.83
6389.09
6382.37
6375.65
6368.96
6362.31
6355.72
6349.2
6342.76
6336.4
6330.11
6323.88
6317.72
6311.62
6305.56
6299.54
6293.56
6287.61
6281.7
6275.81
6269.95
6264.11
6258.29
6252.49
6246.7
6240.94
6235.2
6229.48
6223.79
6218.13
6212.52
6206.96
6201.48
6196.1
6190.83
6185.7
6180.78
6176.1
6171.74
6167.73
6163.94
6159.23
6158.09
6134.24
6090.08
6052.96
6020.04
5990.74
5963.19
5934.6
5900.91
5855.26
5788.75
5711.57
5628.05
5537.19
5430.87
5343.11
5325.53
5362.53
5399.71
5423.13
5433.05
5438.64
5444.24
5445.37
5446.52
5447.36
5447.85
5448.06
5448.11
5448.09
5448.06
6672.25
6672.14
6671.92
6671.6
6671.18
6670.66
6670.05
6669.33
6668.51
6667.59
6666.56
6665.41
6664.15
6662.77
6661.27
6659.64
6657.88
6655.98
6653.94
6651.75
6649.4
6646.88
6644.19
6641.3
6638.21
6634.91
6631.42
6627.75
6623.95
6620.06
6616.13
6612.17
6608.17
6604.13
6600
6595.78
6591.45
6587.02
6582.51
6577.94
6573.34
6568.75
6564.17
6559.63
6555.13
6550.68
6546.28
6541.97
6537.75
6533.63
6529.61
6525.69
6521.84
6518.05
6514.29
6510.54
6506.78
6502.98
6499.12
6495.17
6491.11
6486.92
6482.57
6478.02
6473.26
6468.27
6463.04
6457.6
6451.98
6446.21
6440.3
6434.25
6428.03
6421.61
6415.03
6408.39
6401.73
6395.05
6388.34
6381.61
6374.88
6368.17
6361.51
6354.92
6348.42
6342.01
6335.7
6329.47
6323.31
6317.22
6311.18
6305.2
6299.26
6293.35
6287.49
6281.66
6275.86
6270.09
6264.35
6258.64
6252.95
6247.29
6241.65
6236.05
6230.49
6224.97
6219.5
6214.11
6208.81
6203.61
6198.56
6193.67
6188.99
6184.58
6180.51
6176.87
6173.8
6171.6
6166.77
6164.07
6138.25
6090.24
6046.71
6006.65
5968.88
5931.64
5892.54
5848.49
5795.71
5731.28
5657.62
5576.63
5488.22
5389.78
5327.51
5319.57
5332.64
5368.62
5401.03
5417.74
5420.99
5428.79
5430.39
5431.81
5432.85
5433.54
5433.96
5434.18
5434.28
5434.32
6668.32
6668.26
6668.14
6667.96
6667.71
6667.39
6667
6666.52
6665.95
6665.27
6664.48
6663.57
6662.53
6661.36
6660.05
6658.61
6657.03
6655.3
6653.42
6651.37
6649.15
6646.75
6644.15
6641.33
6638.28
6634.98
6631.43
6627.66
6623.73
6619.74
6615.74
6611.76
6607.77
6603.74
6599.63
6595.4
6591.02
6586.5
6581.87
6577.17
6572.45
6567.75
6563.09
6558.47
6553.9
6549.38
6544.93
6540.57
6536.33
6532.23
6528.26
6524.42
6520.68
6517.01
6513.39
6509.78
6506.16
6502.5
6498.78
6494.96
6491.03
6486.94
6482.68
6478.19
6473.44
6468.4
6463.07
6457.46
6451.63
6445.66
6439.57
6433.37
6427.03
6420.6
6414.11
6407.57
6400.98
6394.32
6387.61
6380.85
6374.08
6367.33
6360.64
6354.04
6347.55
6341.17
6334.91
6328.75
6322.67
6316.66
6310.7
6304.79
6298.93
6293.11
6287.33
6281.59
6275.88
6270.21
6264.57
6258.96
6253.38
6247.84
6242.33
6236.87
6231.45
6226.09
6220.81
6215.62
6210.54
6205.61
6200.85
6196.3
6192.02
6188.05
6184.49
6181.42
6179.02
6177.51
6174.53
6169.54
6139.33
6085.93
6036.98
5990.98
5946.5
5901.95
5855.44
5804.79
5747.79
5683.05
5611
5532.62
5449.27
5364.41
5317.92
5313.32
5311.46
5341.1
5382.78
5404.35
5405.5
5412.44
5415.6
5417.47
5418.7
5419.51
5420.04
5420.36
5420.53
5420.61
6664.3
6664.29
6664.26
6664.22
6664.16
6664.06
6663.9
6663.68
6663.36
6662.94
6662.4
6661.73
6660.92
6659.97
6658.87
6657.63
6656.23
6654.68
6652.96
6651.07
6649
6646.73
6644.24
6641.51
6638.51
6635.21
6631.59
6627.64
6623.51
6619.33
6615.26
6611.27
6607.33
6603.37
6599.31
6595.08
6590.64
6586.01
6581.23
6576.35
6571.46
6566.63
6561.88
6557.19
6552.54
6547.93
6543.4
6538.97
6534.7
6530.62
6526.72
6522.98
6519.37
6515.85
6512.39
6508.95
6505.5
6502
6498.44
6494.78
6490.99
6487.04
6482.89
6478.48
6473.77
6468.67
6463.18
6457.3
6451.18
6444.92
6438.61
6432.29
6425.98
6419.67
6413.32
6406.87
6400.31
6393.66
6386.92
6380.11
6373.27
6366.44
6359.68
6353.05
6346.56
6340.22
6334.03
6327.95
6321.96
6316.04
6310.17
6304.35
6298.57
6292.83
6287.14
6281.48
6275.87
6270.29
6264.75
6259.25
6253.78
6248.36
6242.97
6237.63
6232.35
6227.14
6222.02
6217
6212.13
6207.42
6202.92
6198.67
6194.72
6191.13
6187.96
6185.32
6183.33
6182.17
6180.33
6173.01
6134.8
6077.17
6024.31
5973.77
5924.18
5874.23
5822.49
5767.43
5707.63
5642.13
5570.71
5493.59
5411.83
5336.61
5307.31
5306.97
5305.9
5327.85
5368.71
5391.01
5397.21
5399.85
5402.1
5403.76
5404.95
5405.78
5406.33
5406.69
5406.89
5406.98
6660.14
6660.18
6660.26
6660.37
6660.51
6660.64
6660.74
6660.8
6660.76
6660.62
6660.34
6659.92
6659.35
6658.63
6657.74
6656.69
6655.49
6654.12
6652.58
6650.86
6648.96
6646.84
6644.49
6641.87
6638.95
6635.67
6631.98
6627.71
6623.25
6618.75
6614.61
6610.65
6606.82
6603.02
6599.09
6594.91
6590.38
6585.58
6580.6
6575.48
6570.34
6565.36
6560.53
6555.79
6551.06
6546.35
6541.68
6537.14
6532.82
6528.75
6524.93
6521.33
6517.88
6514.55
6511.29
6508.05
6504.79
6501.48
6498.1
6494.62
6491
6487.21
6483.22
6478.93
6474.28
6469.14
6463.43
6457.15
6450.57
6443.92
6437.45
6431.15
6424.99
6418.87
6412.66
6406.29
6399.76
6393.08
6386.29
6379.4
6372.45
6365.49
6358.6
6351.9
6345.41
6339.13
6333.03
6327.06
6321.18
6315.36
6309.59
6303.86
6298.16
6292.51
6286.9
6281.33
6275.81
6270.34
6264.9
6259.5
6254.14
6248.83
6243.56
6238.34
6233.19
6228.11
6223.12
6218.26
6213.55
6209.03
6204.75
6200.75
6197.07
6193.77
6190.92
6188.57
6186.82
6185.8
6184.72
6165.4
6117.65
6063.65
6009.32
5955.63
5902.21
5848.29
5792.85
5734.82
5673.17
5607.13
5536.1
5459.22
5373.94
5312.53
5302.13
5301.61
5302.24
5316.98
5354.57
5379.03
5386.3
5387.65
5389.19
5390.53
5391.56
5392.31
5392.83
5393.16
5393.35
5393.44
6655.79
6655.89
6656.08
6656.36
6656.72
6657.11
6657.52
6657.88
6658.15
6658.31
6658.31
6658.16
6657.83
6657.34
6656.67
6655.82
6654.81
6653.64
6652.28
6650.76
6649.03
6647.1
6644.91
6642.44
6639.66
6636.42
6632.85
6627.89
6622.93
6617.73
6613.7
6609.82
6606.22
6602.7
6599.06
6595.01
6590.3
6585.29
6580.04
6574.56
6568.97
6563.85
6559.03
6554.29
6549.5
6544.64
6539.76
6535.02
6530.6
6526.56
6522.86
6519.43
6516.21
6513.11
6510.08
6507.07
6504.04
6500.95
6497.77
6494.48
6491.06
6487.47
6483.66
6479.56
6475.04
6469.92
6464
6457.09
6449.91
6442.72
6436.16
6429.95
6424.01
6418.17
6412.18
6405.88
6399.34
6392.62
6385.76
6378.76
6371.64
6364.45
6357.34
6350.54
6344.06
6337.87
6331.9
6326.08
6320.34
6314.65
6308.98
6303.34
6297.72
6292.14
6286.62
6281.14
6275.72
6270.34
6265.01
6259.72
6254.46
6249.26
6244.1
6238.99
6233.95
6228.98
6224.1
6219.35
6214.77
6210.4
6206.3
6202.5
6199.04
6195.98
6193.36
6191.21
6189.58
6188.5
6187.6
6161.03
6106.76
6050.44
5993.71
5937.19
5880.76
5823.87
5765.82
5705.81
5643.11
5577.12
5507.36
5433.24
5353.44
5304.87
5298.92
5298.33
5299.55
5314.08
5346.48
5367.02
5374.17
5375.25
5376.49
5377.6
5378.46
5379.09
5379.51
5379.77
5379.92
5379.99
6651.2
6651.36
6651.68
6652.15
6652.76
6653.46
6654.2
6654.92
6655.55
6656.03
6656.34
6656.46
6656.38
6656.12
6655.66
6655.03
6654.22
6653.24
6652.08
6650.75
6649.24
6647.51
6645.52
6643.19
6640.68
6637.41
6634.98
6629.35
6621.18
6615.44
6612.53
6608.63
6605.44
6602.45
6599.35
6595.69
6590.45
6585.14
6579.62
6573.64
6567.04
6561.96
6557.37
6552.75
6547.93
6542.87
6537.64
6532.5
6527.92
6523.94
6520.43
6517.26
6514.32
6511.51
6508.77
6506.04
6503.26
6500.4
6497.44
6494.36
6491.14
6487.76
6484.19
6480.35
6476.12
6471.3
6465.47
6457.35
6449.31
6440.95
6434.57
6428.5
6422.96
6417.62
6412.02
6405.71
6399.1
6392.31
6385.36
6378.23
6370.89
6363.35
6355.76
6348.87
6342.41
6336.38
6330.62
6325.01
6319.45
6313.9
6308.34
6302.78
6297.23
6291.73
6286.28
6280.9
6275.58
6270.3
6265.07
6259.89
6254.74
6249.64
6244.59
6239.58
6234.64
6229.75
6224.95
6220.28
6215.78
6211.52
6207.55
6203.9
6200.62
6197.75
6195.32
6193.35
6191.78
6190.2
6189.34
6158.44
6097.9
6037.64
5977.89
5918.68
5859.75
5800.63
5740.74
5679.49
5616.33
5550.87
5482.98
5412.94
5341.62
5301.93
5297.7
5297.86
5298.92
5302.97
5329.9
5353.18
5361.28
5362.68
5363.93
5364.91
5365.6
5366.06
5366.34
5366.5
5366.58
5366.61
6646.32
6646.54
6646.99
6647.68
6648.57
6649.64
6650.8
6651.94
6652.97
6653.82
6654.45
6654.85
6655.03
6654.99
6654.75
6654.32
6653.7
6652.92
6651.96
6650.85
6649.55
6648.08
6646.32
6644.01
6642.34
6639.45
6635.7
6627.23
6618.95
6613.79
6609.98
6606.63
6604.39
6602.23
6600.13
6597.84
6593.34
6585.81
6577.01
6569.36
6563.43
6559.45
6555.61
6551.33
6546.52
6541.17
6535.33
6529.32
6524.58
6520.78
6517.59
6514.79
6512.22
6509.77
6507.38
6504.95
6502.46
6499.85
6497.11
6494.23
6491.2
6488.04
6484.73
6481.27
6477.65
6473.7
6469.28
6459.76
6446.57
6437.2
6432.67
6426.53
6421.72
6417.32
6412.58
6405.85
6399.03
6392.15
6385.15
6377.91
6370.36
6362.28
6353.48
6346.77
6340.34
6334.61
6329.21
6323.89
6318.56
6313.16
6307.71
6302.21
6296.71
6291.25
6285.88
6280.6
6275.39
6270.22
6265.1
6260.01
6254.97
6249.97
6245.02
6240.12
6235.26
6230.44
6225.68
6221.02
6216.56
6212.34
6208.46
6204.94
6201.79
6199.07
6196.81
6195.09
6194
6192.21
6190.36
6155.31
6088.78
6024.34
5961.53
5899.88
5838.92
5778.14
5717.03
5655.08
5591.86
5527.06
5460.73
5393.93
5331.24
5300.5
5297.39
5297.45
5298.11
5300.76
5322.74
5341.86
5347.68
5350.25
5351.66
5352.5
5352.98
5353.21
5353.3
5353.31
5353.28
5353.26
6641.08
6641.37
6641.96
6642.86
6644.09
6645.61
6647.29
6648.97
6650.47
6651.72
6652.68
6653.37
6653.79
6653.97
6653.93
6653.69
6653.27
6652.68
6651.93
6651.02
6649.94
6648.8
6647.53
6645.53
6643.05
6635.8
6628.31
6620.3
6614.48
6610.13
6607.1
6604.92
6603.2
6601.89
6600.98
6599.31
6593.13
6582.97
6573.05
6564.71
6560.18
6556.74
6554.2
6550.36
6545.57
6539.86
6533.1
6524.78
6520.18
6516.92
6514.29
6512
6509.91
6507.91
6505.91
6503.85
6501.67
6499.31
6496.77
6494.06
6491.18
6488.2
6485.2
6482.32
6479.55
6476.58
6472.8
6458.92
6442.34
6432.87
6428.01
6423.25
6420.05
6417.35
6415.14
6410.12
6399.94
6390.65
6386.02
6377.66
6365.86
6355.97
6349.12
6344.39
6337.56
6332.51
6327.71
6322.8
6317.72
6312.49
6307.12
6301.66
6296.14
6290.67
6285.38
6280.23
6275.15
6270.11
6265.09
6260.1
6255.15
6250.25
6245.41
6240.61
6235.85
6231.08
6226.29
6221.59
6217.07
6212.84
6209.02
6205.59
6202.55
6199.92
6197.77
6196.2
6195.29
6193.99
6190.84
6149.99
6077.55
6009.4
5944.01
5880.41
5817.92
5755.99
5694.15
5631.95
5568.96
5504.78
5438.96
5370.8
5316.1
5298.02
5297
5297.04
5297.05
5298.93
5318.46
5335.21
5337.35
5338.98
5339.96
5340.45
5340.59
5340.52
5340.34
5340.14
5339.98
5339.89
6635.42
6635.76
6636.47
6637.6
6639.21
6641.29
6643.69
6646.05
6648.11
6649.79
6651.1
6652.05
6652.7
6653.08
6653.22
6653.16
6652.92
6652.51
6651.96
6651.24
6650.26
6649.52
6648.03
6640.69
6632.77
6622.97
6615.64
6609.66
6605.44
6602.95
6602.44
6603.19
6601.83
6601.08
6600.94
6599.45
6590.98
6577.42
6565.81
6556.4
6549.66
6549.1
6549.92
6548.32
6542.75
6533.97
6524.12
6516.36
6514.35
6512.35
6510.55
6508.94
6507.43
6505.96
6504.43
6502.77
6500.92
6498.82
6496.43
6493.81
6491.03
6488.22
6485.56
6483.27
6481.67
6479.32
6470.11
6450.79
6434.26
6423.43
6417.39
6415.99
6417.89
6416.91
6415.73
6409.96
6397.5
6383.99
6376.47
6369.89
6360.99
6352.93
6344.57
6337.89
6332.98
6330.17
6326.31
6321.87
6317.04
6311.94
6306.63
6301.15
6295.53
6289.92
6284.76
6279.79
6274.87
6269.96
6265.05
6260.15
6255.29
6250.48
6245.74
6241.07
6236.44
6231.75
6226.81
6221.96
6217.31
6212.93
6209.18
6205.87
6202.89
6200.28
6198.17
6196.63
6195.78
6194.64
6190.02
6139.08
6062.06
5991.69
5924.69
5859.81
5796.35
5733.76
5671.64
5609.6
5547.25
5484.13
5419.53
5351.97
5306.4
5297.03
5296.54
5296.65
5296.8
5297.85
5312.19
5326.55
5327.51
5328.36
5328.76
5328.74
5328.41
5327.93
5327.41
5326.94
5326.6
5326.42
6629.31
6629.67
6630.45
6631.75
6633.73
6636.53
6640.01
6643.32
6646.04
6648.15
6649.76
6650.95
6651.78
6652.33
6652.63
6652.72
6652.64
6652.4
6652.04
6651.59
6650.8
6648.32
6638.77
6625.33
6615.71
6607.68
6601.61
6597.27
6594.67
6593.77
6594.84
6598.42
6600.06
6600.3
6598.88
6597.08
6586.26
6569.92
6556.39
6544.14
6536.77
6540.66
6542.62
6539.3
6527.89
6515.4
6511.5
6509.2
6508.42
6507.48
6506.57
6505.7
6504.85
6503.96
6502.97
6501.77
6500.27
6498.4
6496.09
6493.52
6490.83
6488.12
6485.57
6483.56
6482.28
6480.55
6466.16
6440.87
6419.82
6403.92
6393.21
6391.13
6400.58
6409.83
6410.27
6399.61
6382.84
6368.61
6362.69
6358.76
6352.58
6347.24
6340.16
6334.07
6331.01
6328.89
6325.49
6321.32
6316.64
6311.6
6306.31
6300.77
6294.93
6288.71
6283.93
6279.3
6274.59
6269.82
6265
6260.17
6255.37
6250.64
6246
6241.49
6237.1
6232.68
6227.22
6222.16
6217.27
6212.38
6208.92
6205.8
6202.86
6200.15
6197.99
6196.39
6195.5
6194.48
6172.4
6109.88
6039.92
5970.6
5903.26
5837.82
5773.88
5711.08
5649.06
5587.55
5526.3
5464.98
5403.05
5339.57
5301.19
5295.76
5295.95
5296.22
5296.6
5298.46
5306.34
5316.94
5317.79
5318.17
5317.98
5317.33
5316.4
5315.37
5314.41
5313.62
5313.07
5312.78
6622.71
6623.04
6623.78
6625.1
6627.32
6630.95
6636.38
6641.09
6644.45
6646.91
6648.74
6650.1
6651.07
6651.74
6652.15
6652.36
6652.4
6652.3
6652.16
6651.06
6642.73
6632.44
6618.28
6606.14
6597.07
6590.42
6585.85
6583.15
6582.19
6582.62
6584.74
6589.76
6595.74
6592.44
6592.66
6592.65
6577.7
6559.59
6545.67
6534.11
6529.39
6534.74
6537.07
6526.98
6511.31
6500.71
6501.94
6502.58
6502.58
6502.54
6502.46
6502.35
6502.21
6501.98
6501.59
6500.9
6499.78
6498.22
6495.89
6493.35
6490.67
6487.9
6485.06
6483.1
6481.69
6479.11
6459.39
6426.7
6400.22
6379.23
6362.33
6354.53
6359.8
6364.92
6380.84
6379.47
6367.49
6360.22
6357.01
6352.89
6348.25
6345.23
6340.36
6335.12
6331.88
6328.13
6324.35
6320.54
6315.51
6310.27
6305.36
6299.61
6292.18
6286.08
6282.95
6278.87
6274.39
6269.71
6264.95
6260.15
6255.38
6250.71
6246.14
6241.77
6237.79
6234.64
6227.42
6222.5
6215.76
6210.42
6208.3
6205.57
6202.61
6199.46
6197.26
6195.42
6194.4
6192.93
6158.34
6088.14
6017.14
5947.52
5879.94
5814.31
5750.3
5687.6
5625.96
5565.26
5505.42
5446.43
5388.13
5329.91
5297.4
5294.49
5295.09
5295.7
5296.61
5298.35
5301.37
5306.86
5308.54
5308.57
5307.67
5306.2
5304.48
5302.76
5301.25
5300.06
5299.26
5298.86
6615.65
6615.88
6616.41
6617.42
6619.37
6623.43
6633.34
6640.08
6643.67
6646.19
6648.1
6649.53
6650.54
6651.29
6651.77
6652.04
6652.23
6652.26
6644.85
6635.67
6621.54
6608.91
6595.77
6583.9
6576
6571.08
6568.24
6567.28
6568.31
6569.78
6571.75
6574.57
6578.58
6574.57
6575.76
6574.38
6559.38
6545.09
6532.61
6521.84
6517.21
6519.55
6519.71
6511.27
6499.98
6493.26
6493.18
6495.94
6496.73
6497.55
6498.3
6498.97
6499.56
6500.03
6500.31
6500.26
6499.6
6498.8
6496.46
6492.98
6489.59
6486.29
6483.69
6482.08
6479.79
6473.55
6446.76
6406.31
6375.13
6350.46
6329.86
6320.24
6320.06
6312.91
6341.46
6368.39
6360.97
6357.37
6357.09
6352.75
6347.75
6344
6340.92
6337.72
6323.86
6312.11
6305.36
6299.91
6294.55
6289.43
6284.45
6279.04
6273.11