/*--------------------------------*- C++ -*----------------------------------*\
| =========                 |                                                 |
| \\      /  F ield         | OpenFOAM: The Open Source CFD Toolbox           |
|  \\    /   O peration     | Version:  2.1.0                                 |
|   \\  /    A nd           | Web:      www.OpenFOAM.org                      |
|    \\/     M anipulation  |                                                 |
\*---------------------------------------------------------------------------*/
FoamFile
{
    version     2.0;
    format      ascii;
    class       volScalarField;
    location    "16060";
    object      so;
}
// * * * * * * * * * * * * * * * * * * * * * * * * * * * * * * * * * * * * * //

dimensions      [0 0 0 0 0 0 0];

internalField   nonuniform List<scalar> 
15000
(
0.2
0.200064
0.201801
0.209534
0.223759
0.241044
0.258751
0.275768
0.29175
0.306641
0.320488
0.333363
0.345344
0.356507
0.366922
0.376652
0.385758
0.394297
0.402322
0.409884
0.417029
0.423793
0.430208
0.436303
0.442105
0.447637
0.452921
0.45798
0.462833
0.4675
0.471996
0.476336
0.480536
0.484606
0.488561
0.492411
0.496167
0.499838
0.503433
0.506961
0.51043
0.513846
0.517215
0.520545
0.523839
0.527105
0.530345
0.533564
0.536767
0.539955
0.543131
0.546299
0.54946
0.552615
0.555767
0.558918
0.562069
0.565224
0.568385
0.571556
0.574742
0.577951
0.58119
0.584468
0.587798
0.591194
0.594676
0.598266
0.601993
0.605893
0.610015
0.614424
0.619212
0.624511
0.630523
0.637553
0.646099
0.656982
0.671572
0.69197
0.720119
0.753163
0.779801
0.793233
0.798012
0.799448
0.799851
0.79996
0.79999
0.799997
0.799999
0.8
0.8
0.8
0.8
0.8
0.8
0.8
0.8
0.8
0.8
0.8
0.8
0.8
0.8
0.8
0.8
0.8
0.8
0.8
0.8
0.8
0.8
0.8
0.8
0.8
0.8
0.8
0.8
0.8
0.8
0.8
0.8
0.8
0.8
0.8
0.8
0.8
0.8
0.8
0.8
0.8
0.8
0.8
0.8
0.8
0.8
0.8
0.8
0.8
0.8
0.8
0.8
0.8
0.8
0.8
0.8
0.8
0.8
0.8
0.200064
0.200864
0.205337
0.216007
0.231213
0.248121
0.265038
0.281257
0.296549
0.310872
0.324255
0.336752
0.348425
0.359335
0.36954
0.379099
0.388062
0.396483
0.404411
0.411893
0.418969
0.425675
0.432041
0.438091
0.443852
0.449346
0.454596
0.459623
0.464447
0.469085
0.473553
0.477866
0.482037
0.486081
0.49001
0.493835
0.497567
0.501213
0.504784
0.508289
0.511734
0.515127
0.518475
0.521783
0.525057
0.528304
0.531528
0.534733
0.537922
0.5411
0.544269
0.547432
0.550591
0.553748
0.556905
0.560064
0.563227
0.566397
0.569578
0.572774
0.575991
0.579235
0.582516
0.585843
0.58923
0.592694
0.596254
0.599937
0.603772
0.607802
0.61208
0.616681
0.621714
0.627331
0.633763
0.641372
0.650743
0.662842
0.679246
0.70212
0.732369
0.764069
0.785826
0.79546
0.798684
0.799635
0.799901
0.799974
0.799993
0.799998
0.8
0.8
0.8
0.8
0.8
0.8
0.8
0.8
0.8
0.8
0.8
0.8
0.8
0.8
0.8
0.8
0.8
0.8
0.8
0.8
0.8
0.8
0.8
0.8
0.8
0.8
0.8
0.8
0.8
0.8
0.8
0.8
0.8
0.8
0.8
0.8
0.8
0.8
0.8
0.8
0.8
0.8
0.8
0.8
0.8
0.8
0.8
0.8
0.8
0.8
0.8
0.8
0.8
0.8
0.8
0.8
0.8
0.8
0.8
0.8
0.201768
0.205288
0.213489
0.226177
0.24136
0.257314
0.273094
0.288274
0.302689
0.316292
0.329087
0.341106
0.352388
0.362976
0.372916
0.382253
0.391034
0.399301
0.407101
0.414475
0.421461
0.428087
0.43438
0.440365
0.446065
0.451502
0.456699
0.461675
0.46645
0.47104
0.475462
0.479731
0.483859
0.487861
0.49175
0.495534
0.499226
0.502833
0.506366
0.509833
0.513241
0.516599
0.519913
0.523188
0.526433
0.529651
0.532849
0.536031
0.539201
0.542362
0.545518
0.548672
0.551826
0.554981
0.55814
0.561305
0.564479
0.567664
0.570865
0.574086
0.577332
0.580611
0.583932
0.587307
0.590749
0.594277
0.597914
0.601686
0.605628
0.609787
0.614224
0.619024
0.62431
0.63026
0.637148
0.645401
0.65572
0.669259
0.687826
0.713459
0.745172
0.773923
0.790543
0.797082
0.799163
0.799768
0.799937
0.799983
0.799996
0.799999
0.8
0.8
0.8
0.8
0.8
0.8
0.8
0.8
0.8
0.8
0.8
0.8
0.8
0.8
0.8
0.8
0.8
0.8
0.8
0.8
0.8
0.8
0.8
0.8
0.8
0.8
0.8
0.8
0.8
0.8
0.8
0.8
0.8
0.8
0.8
0.8
0.8
0.8
0.8
0.8
0.8
0.8
0.8
0.8
0.8
0.8
0.8
0.8
0.8
0.8
0.8
0.8
0.8
0.8
0.8
0.8
0.8
0.8
0.8
0.8
0.209323
0.215777
0.22601
0.238928
0.253191
0.267842
0.282333
0.296377
0.309835
0.322645
0.334788
0.346269
0.357106
0.367327
0.376961
0.386044
0.39461
0.402698
0.410349
0.417597
0.424472
0.431
0.437204
0.443107
0.448729
0.454094
0.45922
0.464129
0.468839
0.473366
0.477727
0.481936
0.486006
0.489951
0.493783
0.497513
0.501149
0.504703
0.508183
0.511599
0.514958
0.518267
0.521534
0.524765
0.527968
0.531149
0.534312
0.537463
0.540606
0.543744
0.546882
0.550022
0.553166
0.556317
0.559476
0.562647
0.565831
0.569032
0.572253
0.575499
0.578775
0.582091
0.585454
0.588877
0.592377
0.595971
0.599684
0.603547
0.607598
0.611889
0.616492
0.621504
0.627066
0.633389
0.640796
0.649807
0.66127
0.676576
0.697738
0.726185
0.757977
0.782174
0.793984
0.798196
0.799487
0.799858
0.799961
0.79999
0.799997
0.799999
0.8
0.8
0.8
0.8
0.8
0.8
0.8
0.8
0.8
0.8
0.8
0.8
0.8
0.8
0.8
0.8
0.8
0.8
0.8
0.8
0.8
0.8
0.8
0.8
0.8
0.8
0.8
0.8
0.8
0.8
0.8
0.8
0.8
0.8
0.8
0.8
0.8
0.8
0.8
0.8
0.8
0.8
0.8
0.8
0.8
0.8
0.8
0.8
0.8
0.8
0.8
0.8
0.8
0.8
0.8
0.8
0.8
0.8
0.8
0.8
0.223192
0.230666
0.240912
0.252926
0.265855
0.279104
0.292298
0.305209
0.317704
0.329706
0.341174
0.352093
0.362461
0.37229
0.381596
0.390403
0.398738
0.406633
0.414121
0.42123
0.427982
0.434398
0.440499
0.446305
0.451836
0.457113
0.462155
0.466983
0.471613
0.476063
0.480348
0.484482
0.488479
0.492353
0.496115
0.499775
0.503342
0.506829
0.510243
0.513594
0.516889
0.520136
0.523344
0.52652
0.529671
0.532803
0.535921
0.539033
0.542141
0.54525
0.548364
0.551486
0.554617
0.557761
0.56092
0.564095
0.567289
0.570506
0.573749
0.577021
0.58033
0.583683
0.587091
0.590566
0.594125
0.59779
0.601586
0.605547
0.609716
0.614152
0.618936
0.624184
0.630061
0.636818
0.644849
0.654789
0.667687
0.685208
0.70941
0.740181
0.769928
0.78855
0.796349
0.798928
0.799697
0.799916
0.799977
0.799994
0.799998
0.8
0.8
0.8
0.8
0.8
0.8
0.8
0.8
0.8
0.8
0.8
0.8
0.8
0.8
0.8
0.8
0.8
0.8
0.8
0.8
0.8
0.8
0.8
0.8
0.8
0.8
0.8
0.8
0.8
0.8
0.8
0.8
0.8
0.8
0.8
0.8
0.8
0.8
0.8
0.8
0.8
0.8
0.8
0.8
0.8
0.8
0.8
0.8
0.8
0.8
0.8
0.8
0.8
0.8
0.8
0.8
0.8
0.8
0.8
0.8
0.8
0.240007
0.247155
0.256488
0.267228
0.278768
0.290674
0.302649
0.314491
0.326065
0.337284
0.34809
0.35845
0.368348
0.37778
0.386751
0.395275
0.403373
0.411071
0.418391
0.425352
0.431972
0.438268
0.444256
0.449955
0.455384
0.460562
0.465508
0.470241
0.474778
0.479137
0.483331
0.487377
0.491288
0.495076
0.498754
0.502331
0.505817
0.509222
0.512556
0.515827
0.519045
0.522218
0.525355
0.528462
0.531548
0.534621
0.537685
0.540747
0.543812
0.546885
0.549969
0.553068
0.556184
0.559319
0.562476
0.565656
0.568861
0.572095
0.575361
0.578664
0.582009
0.585405
0.588863
0.592395
0.596021
0.599763
0.60365
0.607718
0.612018
0.616619
0.621614
0.627139
0.633393
0.640681
0.64949
0.660615
0.675363
0.695671
0.72316
0.754795
0.780108
0.793092
0.797886
0.799388
0.799828
0.799952
0.799987
0.799997
0.799999
0.8
0.8
0.8
0.8
0.8
0.8
0.8
0.8
0.8
0.8
0.8
0.8
0.8
0.8
0.8
0.8
0.8
0.8
0.8
0.8
0.8
0.8
0.8
0.8
0.8
0.8
0.8
0.8
0.8
0.8
0.8
0.8
0.8
0.8
0.8
0.8
0.8
0.8
0.8
0.8
0.8
0.8
0.8
0.8
0.8
0.8
0.8
0.8
0.8
0.8
0.8
0.8
0.8
0.8
0.8
0.8
0.8
0.8
0.8
0.8
0.8
0.257167
0.263573
0.271812
0.281297
0.291563
0.302263
0.313142
0.324012
0.33474
0.345227
0.355407
0.365233
0.374676
0.383721
0.392365
0.400613
0.40848
0.415984
0.423136
0.429948
0.436433
0.442603
0.448473
0.45406
0.459379
0.464448
0.469287
0.473914
0.478346
0.4826
0.486691
0.490636
0.494447
0.498138
0.501719
0.5052
0.50859
0.511901
0.51514
0.518319
0.521446
0.52453
0.527581
0.530606
0.533615
0.536615
0.539613
0.542616
0.545629
0.548657
0.551705
0.554775
0.557872
0.560996
0.56415
0.567335
0.570554
0.57381
0.577104
0.580441
0.583829
0.587274
0.590789
0.594388
0.598091
0.601921
0.605911
0.610105
0.614559
0.619354
0.624601
0.630463
0.637185
0.645147
0.654965
0.667654
0.684836
0.708556
0.738912
0.768769
0.787902
0.796084
0.798834
0.799666
0.799906
0.799974
0.799993
0.799998
0.8
0.8
0.8
0.8
0.8
0.8
0.8
0.8
0.8
0.8
0.8
0.8
0.8
0.8
0.8
0.8
0.8
0.8
0.8
0.8
0.8
0.8
0.8
0.8
0.8
0.8
0.8
0.8
0.8
0.8
0.8
0.8
0.8
0.8
0.8
0.8
0.8
0.8
0.8
0.8
0.8
0.8
0.8
0.8
0.8
0.8
0.8
0.8
0.8
0.8
0.8
0.8
0.8
0.8
0.8
0.8
0.8
0.8
0.8
0.8
0.8
0.8
0.273573
0.279223
0.286466
0.294857
0.304026
0.313685
0.323607
0.33362
0.34359
0.353416
0.363023
0.372354
0.381372
0.390055
0.39839
0.40638
0.414032
0.421351
0.428341
0.435009
0.441362
0.447408
0.45316
0.458631
0.463835
0.468791
0.473515
0.478025
0.48234
0.486476
0.490451
0.494283
0.497983
0.501563
0.505036
0.508408
0.51169
0.514892
0.518024
0.521095
0.524115
0.527094
0.530043
0.532971
0.535888
0.538801
0.54172
0.544651
0.547601
0.550576
0.55358
0.556617
0.559691
0.562803
0.565953
0.569145
0.572381
0.575661
0.578989
0.582369
0.585808
0.589314
0.592898
0.596576
0.600371
0.604307
0.608422
0.612765
0.617406
0.622438
0.627999
0.634289
0.641615
0.650465
0.661641
0.676454
0.696837
0.724338
0.755735
0.780582
0.793237
0.797913
0.799389
0.799826
0.799951
0.799987
0.799996
0.799999
0.8
0.8
0.8
0.8
0.8
0.8
0.8
0.8
0.8
0.8
0.8
0.8
0.8
0.8
0.8
0.8
0.8
0.8
0.8
0.8
0.8
0.8
0.8
0.8
0.8
0.8
0.8
0.8
0.8
0.8
0.8
0.8
0.8
0.8
0.8
0.8
0.8
0.8
0.8
0.8
0.8
0.8
0.8
0.8
0.8
0.8
0.8
0.8
0.8
0.8
0.8
0.8
0.8
0.8
0.8
0.8
0.8
0.8
0.8
0.8
0.8
0.8
0.288879
0.293879
0.300294
0.307779
0.316035
0.324819
0.33393
0.343206
0.352517
0.361761
0.370857
0.379744
0.388379
0.396734
0.404794
0.412554
0.420012
0.427162
0.434004
0.440539
0.446767
0.452697
0.458336
0.463693
0.468784
0.473621
0.478223
0.482607
0.486793
0.490801
0.49465
0.498355
0.501932
0.505392
0.508744
0.511995
0.515156
0.518236
0.521243
0.524189
0.527085
0.529942
0.532771
0.535584
0.538391
0.541202
0.544026
0.546872
0.549746
0.552656
0.555607
0.558605
0.561651
0.564747
0.567896
0.571098
0.574354
0.577666
0.581037
0.584471
0.587973
0.591554
0.595224
0.599002
0.602909
0.606977
0.611247
0.615778
0.620652
0.625988
0.631954
0.638806
0.646942
0.657011
0.670078
0.687823
0.712227
0.742808
0.771615
0.789209
0.796516
0.798955
0.799697
0.799914
0.799976
0.799993
0.799998
0.8
0.8
0.8
0.8
0.8
0.8
0.8
0.8
0.8
0.8
0.8
0.8
0.8
0.8
0.8
0.8
0.8
0.8
0.8
0.8
0.8
0.8
0.8
0.8
0.8
0.8
0.8
0.8
0.8
0.8
0.8
0.8
0.8
0.8
0.8
0.8
0.8
0.8
0.8
0.8
0.8
0.8
0.8
0.8
0.8
0.8
0.8
0.8
0.8
0.8
0.8
0.8
0.8
0.8
0.8
0.8
0.8
0.8
0.8
0.8
0.8
0.8
0.8
0.303029
0.307501
0.313253
0.32001
0.327528
0.335596
0.344035
0.352694
0.361448
0.370195
0.378852
0.387355
0.395659
0.403733
0.411559
0.419123
0.426413
0.433419
0.440132
0.44655
0.452672
0.4585
0.464037
0.469291
0.474272
0.478992
0.483467
0.487718
0.491766
0.495633
0.499341
0.502909
0.506351
0.509678
0.512897
0.516016
0.519042
0.521984
0.52485
0.527652
0.530404
0.533118
0.535807
0.538484
0.541161
0.54385
0.546559
0.5493
0.552083
0.554915
0.557804
0.560753
0.563767
0.566846
0.569992
0.573207
0.576491
0.579844
0.58327
0.586773
0.590357
0.594034
0.597815
0.601721
0.605774
0.61001
0.614479
0.619254
0.624436
0.630172
0.636681
0.644301
0.653572
0.665381
0.681164
0.702896
0.731541
0.762163
0.784217
0.794625
0.798342
0.79951
0.799858
0.79996
0.799989
0.799997
0.799999
0.8
0.8
0.8
0.8
0.8
0.8
0.8
0.8
0.8
0.8
0.8
0.8
0.8
0.8
0.8
0.8
0.8
0.8
0.8
0.8
0.8
0.8
0.8
0.8
0.8
0.8
0.8
0.8
0.8
0.8
0.8
0.8
0.8
0.8
0.8
0.8
0.8
0.8
0.8
0.8
0.8
0.8
0.8
0.8
0.8
0.8
0.8
0.8
0.8
0.8
0.8
0.8
0.8
0.8
0.8
0.8
0.8
0.8
0.8
0.8
0.8
0.8
0.8
0.316065
0.320122
0.325354
0.331542
0.338477
0.345976
0.353877
0.362037
0.370337
0.378676
0.386971
0.395159
0.403193
0.411042
0.418681
0.426088
0.433244
0.440133
0.446746
0.453076
0.459117
0.464868
0.470327
0.475496
0.48038
0.484989
0.489338
0.493448
0.497345
0.501056
0.504608
0.508024
0.511318
0.514501
0.517577
0.520552
0.52343
0.526216
0.528922
0.531559
0.534143
0.536688
0.539211
0.541725
0.544246
0.546785
0.549356
0.551971
0.554642
0.55738
0.56019
0.563081
0.566055
0.569115
0.572261
0.575493
0.578812
0.58222
0.585717
0.589309
0.593002
0.596807
0.600736
0.604811
0.60906
0.613525
0.618265
0.62337
0.628968
0.635253
0.64252
0.65124
0.662175
0.676572
0.696273
0.722848
0.753659
0.778942
0.792409
0.797583
0.79927
0.799785
0.799938
0.799982
0.799995
0.799999
0.8
0.8
0.8
0.8
0.8
0.8
0.8
0.8
0.8
0.8
0.8
0.8
0.8
0.8
0.8
0.8
0.8
0.8
0.8
0.8
0.8
0.8
0.8
0.8
0.8
0.8
0.8
0.8
0.8
0.8
0.8
0.8
0.8
0.8
0.8
0.8
0.8
0.8
0.8
0.8
0.8
0.8
0.8
0.8
0.8
0.8
0.8
0.8
0.8
0.8
0.8
0.8
0.8
0.8
0.8
0.8
0.8
0.8
0.8
0.8
0.8
0.8
0.8
0.8
0.328056
0.331793
0.336631
0.342386
0.348879
0.355945
0.363434
0.371211
0.379161
0.387185
0.395202
0.40315
0.410984
0.418669
0.426171
0.433463
0.440524
0.447337
0.453889
0.460169
0.466169
0.471882
0.4773
0.482418
0.487233
0.491749
0.495976
0.499939
0.503669
0.507203
0.510578
0.513821
0.516953
0.519979
0.522904
0.525724
0.528439
0.531053
0.533574
0.536017
0.538401
0.540745
0.543067
0.545385
0.547715
0.550073
0.552473
0.554932
0.557463
0.560081
0.562795
0.565613
0.56854
0.571577
0.574723
0.577981
0.581348
0.584826
0.588418
0.592128
0.595967
0.599946
0.604081
0.608397
0.612925
0.617711
0.622835
0.628406
0.634595
0.641669
0.650051
0.660428
0.673925
0.692246
0.717156
0.747357
0.774417
0.790286
0.796805
0.799012
0.799703
0.799912
0.799974
0.799993
0.799998
0.799999
0.8
0.8
0.8
0.8
0.8
0.8
0.8
0.8
0.8
0.8
0.8
0.8
0.8
0.8
0.8
0.8
0.8
0.8
0.8
0.8
0.8
0.8
0.8
0.8
0.8
0.8
0.8
0.8
0.8
0.8
0.8
0.8
0.8
0.8
0.8
0.8
0.8
0.8
0.8
0.8
0.8
0.8
0.8
0.8
0.8
0.8
0.8
0.8
0.8
0.8
0.8
0.8
0.8
0.8
0.8
0.8
0.8
0.8
0.8
0.8
0.8
0.8
0.8
0.8
0.339073
0.342571
0.347121
0.352567
0.358745
0.365505
0.372704
0.380214
0.387921
0.395727
0.403557
0.41135
0.419058
0.426639
0.434057
0.441284
0.448299
0.455084
0.461626
0.467913
0.473931
0.479668
0.485107
0.490232
0.495029
0.499489
0.503613
0.507424
0.510963
0.514286
0.517449
0.520492
0.52344
0.5263
0.529064
0.531721
0.53426
0.536678
0.538984
0.541196
0.543337
0.545433
0.547508
0.549583
0.551677
0.553807
0.555992
0.55825
0.560603
0.563067
0.565658
0.568384
0.571251
0.57426
0.57741
0.580701
0.584132
0.587705
0.591423
0.595296
0.599338
0.603563
0.608014
0.612737
0.617728
0.622993
0.628637
0.634875
0.641936
0.650203
0.660321
0.673348
0.690907
0.714775
0.744209
0.771746
0.788853
0.796228
0.798806
0.799632
0.799888
0.799967
0.79999
0.799997
0.799999
0.8
0.8
0.8
0.8
0.8
0.8
0.8
0.8
0.8
0.8
0.8
0.8
0.8
0.8
0.8
0.8
0.8
0.8
0.8
0.8
0.8
0.8
0.8
0.8
0.8
0.8
0.8
0.8
0.8
0.8
0.8
0.8
0.8
0.8
0.8
0.8
0.8
0.8
0.8
0.8
0.8
0.8
0.8
0.8
0.8
0.8
0.8
0.8
0.8
0.8
0.8
0.8
0.8
0.8
0.8
0.8
0.8
0.8
0.8
0.8
0.8
0.8
0.8
0.8
0.8
0.349184
0.35251
0.356868
0.362114
0.368099
0.374676
0.381709
0.389069
0.396644
0.404339
0.412079
0.419802
0.427456
0.434996
0.442388
0.449608
0.456636
0.463457
0.470061
0.476432
0.482557
0.488415
0.49398
0.49937
0.504559
0.509331
0.513437
0.517063
0.520325
0.523318
0.526143
0.528873
0.531546
0.534168
0.536718
0.539161
0.541467
0.543622
0.545632
0.547521
0.549321
0.551072
0.552808
0.554555
0.556332
0.558159
0.560054
0.562044
0.564156
0.566415
0.56884
0.571444
0.574232
0.577204
0.58036
0.583696
0.587212
0.590912
0.594803
0.598903
0.603234
0.607838
0.612828
0.618207
0.623995
0.630168
0.63667
0.643908
0.652296
0.662456
0.675429
0.692808
0.716286
0.745024
0.77185
0.788689
0.796091
0.798735
0.799601
0.799876
0.799962
0.799988
0.799996
0.799999
0.8
0.8
0.8
0.8
0.8
0.8
0.8
0.8
0.8
0.8
0.8
0.8
0.8
0.8
0.8
0.8
0.8
0.8
0.8
0.8
0.8
0.8
0.8
0.8
0.8
0.8
0.8
0.8
0.8
0.8
0.8
0.8
0.8
0.8
0.8
0.8
0.8
0.8
0.8
0.8
0.8
0.8
0.8
0.8
0.8
0.8
0.8
0.8
0.8
0.8
0.8
0.8
0.8
0.8
0.8
0.8
0.8
0.8
0.8
0.8
0.8
0.8
0.8
0.8
0.8
0.8
0.358444
0.361661
0.365913
0.371066
0.376974
0.383495
0.390489
0.397826
0.405391
0.413088
0.420838
0.428576
0.436247
0.443813
0.451246
0.458525
0.46564
0.472582
0.479344
0.485916
0.492284
0.498425
0.504812
0.511278
0.517614
0.523575
0.528716
0.532114
0.534886
0.537223
0.53936
0.541458
0.543601
0.545798
0.547992
0.550091
0.552007
0.5537
0.555173
0.556459
0.557623
0.55874
0.559871
0.561051
0.562298
0.563625
0.565056
0.566621
0.568357
0.5703
0.572475
0.574895
0.577565
0.580482
0.583639
0.587032
0.590661
0.594534
0.598667
0.603092
0.607854
0.613127
0.618982
0.625544
0.632866
0.640825
0.649094
0.658014
0.668616
0.681967
0.699662
0.723121
0.750752
0.775256
0.790069
0.79652
0.79885
0.799628
0.799881
0.799962
0.799988
0.799996
0.799999
0.8
0.8
0.8
0.8
0.8
0.8
0.8
0.8
0.8
0.8
0.8
0.8
0.8
0.8
0.8
0.8
0.8
0.8
0.8
0.8
0.8
0.8
0.8
0.8
0.8
0.8
0.8
0.8
0.8
0.8
0.8
0.8
0.8
0.8
0.8
0.8
0.8
0.8
0.8
0.8
0.8
0.8
0.8
0.8
0.8
0.8
0.8
0.8
0.8
0.8
0.8
0.8
0.8
0.8
0.8
0.8
0.8
0.8
0.8
0.8
0.8
0.8
0.8
0.8
0.8
0.8
0.8
0.366905
0.37007
0.374299
0.379463
0.385419
0.392019
0.399116
0.406571
0.41426
0.422077
0.429936
0.437772
0.445537
0.453201
0.460748
0.46817
0.475466
0.482642
0.489702
0.496652
0.503486
0.510994
0.519007
0.527524
0.536581
0.545511
0.553651
0.557719
0.559626
0.560555
0.561201
0.561964
0.563068
0.56455
0.566265
0.567947
0.569322
0.570274
0.57079
0.570927
0.570821
0.570666
0.5706
0.570682
0.570923
0.571321
0.571892
0.572678
0.573736
0.575117
0.576854
0.578958
0.581422
0.584231
0.587371
0.59083
0.594604
0.59871
0.603183
0.608087
0.613527
0.619862
0.627319
0.636237
0.646798
0.658716
0.67112
0.68371
0.698541
0.716846
0.739249
0.763017
0.782016
0.792801
0.797435
0.799132
0.799712
0.799905
0.799969
0.79999
0.799997
0.799999
0.8
0.8
0.8
0.8
0.8
0.8
0.8
0.8
0.8
0.8
0.8
0.8
0.8
0.8
0.8
0.8
0.8
0.8
0.8
0.8
0.8
0.8
0.8
0.8
0.8
0.8
0.8
0.8
0.8
0.8
0.8
0.8
0.8
0.8
0.8
0.8
0.8
0.8
0.8
0.8
0.8
0.8
0.8
0.8
0.8
0.8
0.8
0.8
0.8
0.8
0.8
0.8
0.8
0.8
0.8
0.8
0.8
0.8
0.8
0.8
0.8
0.8
0.8
0.8
0.8
0.8
0.8
0.8
0.374647
0.377832
0.382133
0.387414
0.393523
0.400299
0.407583
0.415311
0.423397
0.431457
0.439524
0.447544
0.455481
0.463324
0.471072
0.478736
0.48634
0.493912
0.501485
0.509099
0.517547
0.527355
0.538722
0.551511
0.566086
0.579999
0.594787
0.600035
0.6006
0.598467
0.59602
0.594155
0.593442
0.594038
0.595632
0.598468
0.599442
0.599403
0.598317
0.596267
0.59355
0.590768
0.588304
0.586265
0.584604
0.583252
0.582195
0.581492
0.581253
0.581569
0.582486
0.584001
0.586079
0.588675
0.591747
0.595267
0.599228
0.603658
0.608629
0.614279
0.620916
0.629075
0.63951
0.653067
0.670121
0.689984
0.711141
0.730569
0.748964
0.765399
0.77961
0.789932
0.795792
0.798437
0.799455
0.799814
0.799937
0.799979
0.799993
0.799998
0.799999
0.8
0.8
0.8
0.8
0.8
0.8
0.8
0.8
0.8
0.8
0.8
0.8
0.8
0.8
0.8
0.8
0.8
0.8
0.8
0.8
0.8
0.8
0.8
0.8
0.8
0.8
0.8
0.8
0.8
0.8
0.8
0.8
0.8
0.8
0.8
0.8
0.8
0.8
0.8
0.8
0.8
0.8
0.8
0.8
0.8
0.8
0.8
0.8
0.8
0.8
0.8
0.8
0.8
0.8
0.8
0.8
0.8
0.8
0.8
0.8
0.8
0.8
0.8
0.8
0.8
0.8
0.8
0.8
0.8
0.381721
0.385011
0.389498
0.395039
0.401466
0.408594
0.41624
0.424304
0.432643
0.440938
0.44981
0.458114
0.466308
0.474417
0.482473
0.490517
0.498609
0.506823
0.515256
0.524085
0.53569
0.550314
0.56833
0.587126
0.60937
0.625772
0.646802
0.651626
0.651416
0.644447
0.637878
0.632772
0.63021
0.630855
0.637009
0.647353
0.651055
0.650662
0.647563
0.64166
0.633411
0.625097
0.617957
0.612077
0.607091
0.602658
0.598644
0.595144
0.592423
0.590711
0.590092
0.590523
0.591898
0.594096
0.597015
0.600587
0.604798
0.609699
0.615441
0.622315
0.630931
0.64242
0.658389
0.680295
0.707828
0.737553
0.763118
0.778849
0.787158
0.791886
0.795513
0.797874
0.799135
0.799687
0.799893
0.799964
0.799987
0.799996
0.799999
0.799999
0.8
0.8
0.8
0.8
0.8
0.8
0.8
0.8
0.8
0.8
0.8
0.8
0.8
0.8
0.8
0.8
0.8
0.8
0.8
0.8
0.8
0.8
0.8
0.8
0.8
0.8
0.8
0.8
0.8
0.8
0.8
0.8
0.8
0.8
0.8
0.8
0.8
0.8
0.8
0.8
0.8
0.8
0.8
0.8
0.8
0.8
0.8
0.8
0.8
0.8
0.8
0.8
0.8
0.8
0.8
0.8
0.8
0.8
0.8
0.8
0.8
0.8
0.8
0.8
0.8
0.8
0.8
0.8
0.8
0.8
0.388172
0.39166
0.396467
0.402441
0.40939
0.417085
0.425295
0.43386
0.44259
0.451284
0.460362
0.469281
0.478324
0.486827
0.495335
0.503958
0.51282
0.522092
0.532018
0.544947
0.561934
0.585257
0.61314
0.634766
0.662394
0.669583
0.678065
0.741515
0.748365
0.665635
0.661335
0.657479
0.655929
0.658926
0.672038
0.691756
0.698074
0.701242
0.700942
0.695125
0.681558
0.667067
0.655378
0.646172
0.638188
0.630489
0.622706
0.615062
0.608337
0.603266
0.60012
0.598807
0.599076
0.600661
0.603346
0.607004
0.611612
0.617284
0.624332
0.633365
0.645449
0.662892
0.688321
0.72196
0.756728
0.781136
0.79284
0.796391
0.797876
0.798367
0.799057
0.799539
0.799816
0.799938
0.799981
0.799994
0.799998
0.799999
0.8
0.8
0.8
0.8
0.8
0.8
0.8
0.8
0.8
0.8
0.8
0.8
0.8
0.8
0.8
0.8
0.8
0.8
0.8
0.8
0.8
0.8
0.8
0.8
0.8
0.8
0.8
0.8
0.8
0.8
0.8
0.8
0.8
0.8
0.8
0.8
0.8
0.8
0.8
0.8
0.8
0.8
0.8
0.8
0.8
0.8
0.8
0.8
0.8
0.8
0.8
0.8
0.8
0.8
0.8
0.8
0.8
0.8
0.8
0.8
0.8
0.8
0.8
0.8
0.8
0.8
0.8
0.8
0.8
0.8
0.8
0.8
0.394049
0.397839
0.403126
0.409758
0.417502
0.426043
0.435062
0.444315
0.453601
0.462824
0.472221
0.4815
0.491047
0.501057
0.510263
0.519799
0.529943
0.541084
0.553859
0.573623
0.599662
0.63598
0.673404
0.684983
0.699366
0.790368
0.799874
0.799851
0.799422
0.795273
0.73941
0.6742
0.673594
0.68032
0.705313
0.71903
0.784932
0.799403
0.794027
0.757319
0.694635
0.686488
0.679454
0.673676
0.667743
0.660394
0.650899
0.639444
0.627823
0.618356
0.611913
0.608382
0.607302
0.608199
0.610716
0.614664
0.620061
0.627181
0.636656
0.649714
0.668434
0.695987
0.733332
0.769158
0.789642
0.797047
0.799003
0.799923
0.799948
0.799589
0.799791
0.799889
0.799958
0.799988
0.799997
0.799999
0.8
0.8
0.8
0.8
0.8
0.8
0.8
0.8
0.8
0.8
0.8
0.8
0.8
0.8
0.8
0.8
0.8
0.8
0.8
0.8
0.8
0.8
0.8
0.8
0.8
0.8
0.8
0.8
0.8
0.8
0.8
0.8
0.8
0.8
0.8
0.8
0.8
0.8
0.8
0.8
0.8
0.8
0.8
0.8
0.8
0.8
0.8
0.8
0.8
0.8
0.8
0.8
0.8
0.8
0.8
0.8
0.8
0.8
0.8
0.8
0.8
0.8
0.8
0.8
0.8
0.8
0.8
0.8
0.8
0.8
0.8
0.8
0.8
0.8
0.399402
0.403612
0.409586
0.417186
0.426114
0.4359
0.446045
0.456219
0.466247
0.476118
0.48598
0.495769
0.505806
0.516603
0.528275
0.539427
0.551964
0.566929
0.587887
0.621459
0.65602
0.702968
0.724526
0.791993
0.799904
0.799981
0.8
0.8
0.799999
0.799988
0.799722
0.766159
0.69786
0.710381
0.748366
0.798652
0.799996
0.799999
0.799987
0.799765
0.763256
0.699359
0.697325
0.696694
0.695213
0.691075
0.682342
0.667421
0.64887
0.633884
0.62383
0.618099
0.615822
0.616279
0.61901
0.623872
0.631082
0.641267
0.655587
0.676203
0.706257
0.744318
0.777271
0.793525
0.798584
0.799647
0.799993
0.8
0.8
0.799999
0.799995
0.799977
0.799992
0.799999
0.8
0.8
0.8
0.8
0.8
0.8
0.8
0.8
0.8
0.8
0.8
0.8
0.8
0.8
0.8
0.8
0.8
0.8
0.8
0.8
0.8
0.8
0.8
0.8
0.8
0.8
0.8
0.8
0.8
0.8
0.8
0.8
0.8
0.8
0.8
0.8
0.8
0.8
0.8
0.8
0.8
0.8
0.8
0.8
0.8
0.8
0.8
0.8
0.8
0.8
0.8
0.8
0.8
0.8
0.8
0.8
0.8
0.8
0.8
0.8
0.8
0.8
0.8
0.8
0.8
0.8
0.8
0.8
0.8
0.8
0.8
0.8
0.8
0.8
0.8
0.8
0.404281
0.409038
0.415965
0.424994
0.43573
0.447393
0.459122
0.470523
0.481511
0.492173
0.502691
0.513205
0.524084
0.535886
0.549836
0.565831
0.583741
0.608457
0.653176
0.708328
0.740988
0.775374
0.799681
0.799981
0.8
0.8
0.8
0.8
0.8
0.8
0.799999
0.799309
0.7864
0.752011
0.795223
0.799946
0.8
0.8
0.8
0.799999
0.799663
0.746573
0.779358
0.788976
0.786248
0.760343
0.724668
0.67304
0.656828
0.6429
0.632523
0.626213
0.623696
0.624528
0.628523
0.635987
0.647702
0.664811
0.688587
0.720447
0.756579
0.783887
0.795549
0.79906
0.799866
0.799999
0.8
0.8
0.8
0.8
0.8
0.799999
0.799999
0.8
0.8
0.8
0.8
0.8
0.8
0.8
0.8
0.8
0.8
0.8
0.8
0.8
0.8
0.8
0.8
0.8
0.8
0.8
0.8
0.8
0.8
0.8
0.8
0.8
0.8
0.8
0.8
0.8
0.8
0.8
0.8
0.8
0.8
0.8
0.8
0.8
0.8
0.8
0.8
0.8
0.8
0.8
0.8
0.8
0.8
0.8
0.8
0.8
0.8
0.8
0.8
0.8
0.8
0.8
0.8
0.8
0.8
0.8
0.8
0.8
0.8
0.8
0.8
0.8
0.8
0.8
0.8
0.8
0.8
0.8
0.8
0.8
0.8
0.8
0.8
0.8
0.408728
0.414145
0.422361
0.433547
0.447217
0.461954
0.476033
0.489137
0.50138
0.513058
0.524534
0.536194
0.548593
0.562535
0.579534
0.604611
0.637644
0.688443
0.756959
0.787919
0.799515
0.799901
0.799999
0.8
0.8
0.8
0.8
0.8
0.8
0.8
0.8
0.799998
0.799296
0.783226
0.799128
0.799993
0.8
0.8
0.8
0.8
0.798157
0.781826
0.798623
0.799943
0.799885
0.79482
0.772377
0.67724
0.66154
0.64848
0.638562
0.632643
0.630933
0.633615
0.641541
0.656323
0.679393
0.710705
0.744251
0.773175
0.790366
0.797282
0.799366
0.799885
0.799987
0.8
0.8
0.8
0.8
0.8
0.8
0.8
0.8
0.8
0.8
0.8
0.8
0.8
0.8
0.8
0.8
0.8
0.8
0.8
0.8
0.8
0.8
0.8
0.8
0.8
0.8
0.8
0.8
0.8
0.8
0.8
0.8
0.8
0.8
0.8
0.8
0.8
0.8
0.8
0.8
0.8
0.8
0.8
0.8
0.8
0.8
0.8
0.8
0.8
0.8
0.8
0.8
0.8
0.8
0.8
0.8
0.8
0.8
0.8
0.8
0.8
0.8
0.8
0.8
0.8
0.8
0.8
0.8
0.8
0.8
0.8
0.8
0.8
0.8
0.8
0.8
0.8
0.8
0.8
0.8
0.8
0.8
0.8
0.8
0.8
0.412763
0.418872
0.42872
0.443236
0.462227
0.482988
0.501124
0.516917
0.530773
0.543687
0.556561
0.570134
0.585381
0.60375
0.627857
0.664829
0.726381
0.780594
0.798214
0.79994
0.799998
0.799999
0.8
0.8
0.8
0.8
0.8
0.8
0.8
0.8
0.8
0.8
0.799974
0.796374
0.799941
0.8
0.8
0.8
0.8
0.8
0.799657
0.796908
0.799968
0.8
0.8
0.799324
0.78605
0.679992
0.664436
0.651849
0.642679
0.638011
0.638804
0.647131
0.666907
0.70082
0.742043
0.778653
0.791593
0.79711
0.799101
0.799727
0.799911
0.799981
0.799997
0.8
0.8
0.8
0.8
0.8
0.8
0.8
0.8
0.8
0.8
0.8
0.8
0.8
0.8
0.8
0.8
0.8
0.8
0.8
0.8
0.8
0.8
0.8
0.8
0.8
0.8
0.8
0.8
0.8
0.8
0.8
0.8
0.8
0.8
0.8
0.8
0.8
0.8
0.8
0.8
0.8
0.8
0.8
0.8
0.8
0.8
0.8
0.8
0.8
0.8
0.8
0.8
0.8
0.8
0.8
0.8
0.8
0.8
0.8
0.8
0.8
0.8
0.8
0.8
0.8
0.8
0.8
0.8
0.8
0.8
0.8
0.8
0.8
0.8
0.8
0.8
0.8
0.8
0.8
0.8
0.8
0.8
0.8
0.8
0.8
0.416388
0.422998
0.43453
0.454543
0.487964
0.533738
0.572395
0.606164
0.587975
0.595885
0.609484
0.625047
0.643827
0.668369
0.700916
0.746858
0.788598
0.799532
0.799992
0.8
0.8
0.8
0.8
0.8
0.8
0.8
0.8
0.8
0.8
0.8
0.8
0.8
0.8
0.799266
0.799997
0.8
0.8
0.8
0.8
0.8
0.799955
0.799745
0.8
0.8
0.8
0.799949
0.768464
0.680979
0.665791
0.654202
0.646902
0.645715
0.653369
0.674817
0.71903
0.7735
0.794078
0.799284
0.79998
0.799993
0.799993
0.799996
0.799989
0.799997
0.799999
0.8
0.8
0.8
0.8
0.8
0.8
0.8
0.8
0.8
0.8
0.8
0.8
0.8
0.8
0.8
0.8
0.8
0.8
0.8
0.8
0.8
0.8
0.8
0.8
0.8
0.8
0.8
0.8
0.8
0.8
0.8
0.8
0.8
0.8
0.8
0.8
0.8
0.8
0.8
0.8
0.8
0.8
0.8
0.8
0.8
0.8
0.8
0.8
0.8
0.8
0.8
0.8
0.8
0.8
0.8
0.8
0.8
0.8
0.8
0.8
0.8
0.8
0.8
0.8
0.8
0.8
0.8
0.8
0.8
0.8
0.8
0.8
0.8
0.8
0.8
0.8
0.8
0.8
0.8
0.8
0.8
0.8
0.8
0.8
0.8
0.419623
0.426221
0.437848
0.458232
0.491721
0.53635
0.671932
0.717346
0.707509
0.699428
0.706987
0.720444
0.72514
0.750262
0.772957
0.789482
0.799826
0.799997
0.8
0.8
0.8
0.8
0.8
0.8
0.8
0.8
0.8
0.8
0.8
0.8
0.8
0.8
0.8
0.799862
0.799999
0.8
0.8
0.8
0.8
0.8
0.799995
0.799985
0.8
0.8
0.8
0.799997
0.697938
0.679709
0.666291
0.657391
0.654839
0.662021
0.68357
0.724024
0.772881
0.7996
0.799969
0.799998
0.8
0.8
0.8
0.8
0.8
0.8
0.8
0.8
0.8
0.8
0.8
0.8
0.8
0.8
0.8
0.8
0.8
0.8
0.8
0.8
0.8
0.8
0.8
0.8
0.8
0.8
0.8
0.8
0.8
0.8
0.8
0.8
0.8
0.8
0.8
0.8
0.8
0.8
0.8
0.8
0.8
0.8
0.8
0.8
0.8
0.8
0.8
0.8
0.8
0.8
0.8
0.8
0.8
0.8
0.8
0.8
0.8
0.8
0.8
0.8
0.8
0.8
0.8
0.8
0.8
0.8
0.8
0.8
0.8
0.8
0.8
0.8
0.8
0.8
0.8
0.8
0.8
0.8
0.8
0.8
0.8
0.8
0.8
0.8
0.8
0.8
0.8
0.8
0.8
0.8
0.8
0.8
0.422679
0.429014
0.440049
0.459159
0.48991
0.529587
0.541279
0.796074
0.797704
0.799989
0.799662
0.794545
0.77426
0.797513
0.799464
0.799936
0.799998
0.8
0.8
0.8
0.8
0.8
0.8
0.8
0.8
0.8
0.8
0.8
0.8
0.8
0.8
0.8
0.8
0.799976
0.8
0.8
0.8
0.8
0.8
0.8
0.799999
0.799999
0.8
0.8
0.8
0.797427
0.696076
0.679169
0.668645
0.665248
0.670991
0.689823
0.723462
0.761297
0.799415
0.799997
0.8
0.8
0.8
0.8
0.8
0.8
0.8
0.8
0.8
0.8
0.8
0.8
0.8
0.8
0.8
0.8
0.8
0.8
0.8
0.8
0.8
0.8
0.8
0.8
0.8
0.8
0.8
0.8
0.8
0.8
0.8
0.8
0.8
0.8
0.8
0.8
0.8
0.8
0.8
0.8
0.8
0.8
0.8
0.8
0.8
0.8
0.8
0.8
0.8
0.8
0.8
0.8
0.8
0.8
0.8
0.8
0.8
0.8
0.8
0.8
0.8
0.8
0.8
0.8
0.8
0.8
0.8
0.8
0.8
0.8
0.8
0.8
0.8
0.8
0.8
0.8
0.8
0.8
0.8
0.8
0.8
0.8
0.8
0.8
0.8
0.8
0.8
0.8
0.8
0.8
0.8
0.8
0.8
0.8
0.425689
0.431676
0.441904
0.459243
0.486376
0.520183
0.534076
0.538082
0.799963
0.8
0.799996
0.799927
0.79956
0.799968
0.799994
0.8
0.8
0.8
0.8
0.8
0.8
0.8
0.8
0.8
0.8
0.8
0.8
0.8
0.8
0.8
0.8
0.8
0.8
0.799996
0.8
0.8
0.8
0.8
0.8
0.8
0.8
0.8
0.8
0.8
0.799999
0.795883
0.696612
0.681052
0.676274
0.681113
0.695387
0.721945
0.750193
0.798483
0.799992
0.8
0.8
0.8
0.8
0.8
0.8
0.8
0.8
0.8
0.8
0.8
0.8
0.8
0.8
0.8
0.8
0.8
0.8
0.8
0.8
0.8
0.8
0.8
0.8
0.8
0.8
0.8
0.8
0.8
0.8
0.8
0.8
0.8
0.8
0.8
0.8
0.8
0.8
0.8
0.8
0.8
0.8
0.8
0.8
0.8
0.8
0.8
0.8
0.8
0.8
0.8
0.8
0.8
0.8
0.8
0.8
0.8
0.8
0.8
0.8
0.8
0.8
0.8
0.8
0.8
0.8
0.8
0.8
0.8
0.8
0.8
0.8
0.8
0.8
0.8
0.8
0.8
0.8
0.8
0.8
0.8
0.8
0.8
0.8
0.8
0.8
0.8
0.8
0.8
0.8
0.8
0.8
0.8
0.8
0.8
0.428715
0.43432
0.443679
0.459151
0.482694
0.511419
0.527095
0.534527
0.538258
0.798175
0.8
0.799999
0.799995
0.8
0.8
0.8
0.8
0.8
0.8
0.8
0.8
0.8
0.8
0.8
0.8
0.8
0.8
0.8
0.8
0.8
0.8
0.8
0.8
0.799999
0.8
0.8
0.8
0.8
0.8
0.8
0.8
0.8
0.8
0.8
0.799994
0.794362
0.698652
0.687107
0.69292
0.705979
0.72174
0.742247
0.795252
0.79998
0.8
0.8
0.8
0.8
0.8
0.8
0.8
0.8
0.8
0.8
0.8
0.8
0.8
0.8
0.8
0.8
0.8
0.8
0.8
0.8
0.8
0.8
0.8
0.8
0.8
0.8
0.8
0.8
0.8
0.8
0.8
0.8
0.8
0.8
0.8
0.8
0.8
0.8
0.8
0.8
0.8
0.8
0.8
0.8
0.8
0.8
0.8
0.8
0.8
0.8
0.8
0.8
0.8
0.8
0.8
0.8
0.8
0.8
0.8
0.8
0.8
0.8
0.8
0.8
0.8
0.8
0.8
0.8
0.8
0.8
0.8
0.8
0.8
0.8
0.8
0.8
0.8
0.8
0.8
0.8
0.8
0.8
0.8
0.8
0.8
0.8
0.8
0.8
0.8
0.8
0.8
0.8
0.8
0.8
0.8
0.8
0.431794
0.437023
0.445545
0.459273
0.479639
0.504265
0.520647
0.530269
0.536021
0.540915
0.635156
0.791314
0.799994
0.8
0.8
0.8
0.8
0.8
0.8
0.8
0.8
0.8
0.8
0.8
0.8
0.8
0.8
0.8
0.8
0.8
0.8
0.8
0.8
0.8
0.8
0.8
0.8
0.8
0.8
0.8
0.8
0.8
0.8
0.8
0.799741
0.791865
0.702009
0.691227
0.698862
0.757193
0.775865
0.77015
0.799427
0.799998
0.8
0.8
0.8
0.8
0.8
0.8
0.8
0.8
0.8
0.8
0.8
0.8
0.8
0.8
0.8
0.8
0.8
0.8
0.8
0.8
0.8
0.8
0.8
0.8
0.8
0.8
0.8
0.8
0.8
0.8
0.8
0.8
0.8
0.8
0.8
0.8
0.8
0.8
0.8
0.8
0.8
0.8
0.8
0.8
0.8
0.8
0.8
0.8
0.8
0.8
0.8
0.8
0.8
0.8
0.8
0.8
0.8
0.8
0.8
0.8
0.8
0.8
0.8
0.8
0.8
0.8
0.8
0.8
0.8
0.8
0.8
0.8
0.8
0.8
0.8
0.8
0.8
0.8
0.8
0.8
0.8
0.8
0.8
0.8
0.8
0.8
0.8
0.8
0.8
0.8
0.8
0.8
0.8
0.8
0.8
0.8
0.43495
0.439828
0.447594
0.45979
0.47749
0.498829
0.515083
0.525966
0.533163
0.538652
0.544847
0.550837
0.559651
0.678237
0.790407
0.799954
0.8
0.8
0.8
0.8
0.8
0.8
0.8
0.8
0.8
0.8
0.8
0.8
0.8
0.8
0.8
0.8
0.8
0.8
0.8
0.8
0.8
0.8
0.8
0.8
0.8
0.8
0.8
0.8
0.799893
0.794063
0.706339
0.695452
0.702241
0.778478
0.794104
0.791473
0.799966
0.8
0.8
0.8
0.8
0.8
0.8
0.8
0.8
0.8
0.8
0.8
0.8
0.8
0.8
0.8
0.8
0.8
0.8
0.8
0.8
0.8
0.8
0.8
0.8
0.8
0.8
0.8
0.8
0.8
0.8
0.8
0.8
0.8
0.8
0.8
0.8
0.8
0.8
0.8
0.8
0.8
0.8
0.8
0.8
0.8
0.8
0.8
0.8
0.8
0.8
0.8
0.8
0.8
0.8
0.8
0.8
0.8
0.8
0.8
0.8
0.8
0.8
0.8
0.8
0.8
0.8
0.8
0.8
0.8
0.8
0.8
0.8
0.8
0.8
0.8
0.8
0.8
0.8
0.8
0.8
0.8
0.8
0.8
0.8
0.8
0.8
0.8
0.8
0.8
0.8
0.8
0.8
0.8
0.8
0.8
0.8
0.8
0.438191
0.442754
0.449862