/*--------------------------------*- C++ -*----------------------------------*\
| =========                 |                                                 |
| \\      /  F ield         | OpenFOAM: The Open Source CFD Toolbox           |
|  \\    /   O peration     | Version:  2.1.0                                 |
|   \\  /    A nd           | Web:      www.OpenFOAM.org                      |
|    \\/     M anipulation  |                                                 |
\*---------------------------------------------------------------------------*/
FoamFile
{
    version     2.0;
    format      ascii;
    class       volScalarField;
    location    "16060";
    object      sw;
}
// * * * * * * * * * * * * * * * * * * * * * * * * * * * * * * * * * * * * * //

dimensions      [0 0 0 0 0 0 0];

internalField   nonuniform List<scalar> 
15000
(
0.8
0.799936
0.798199
0.790466
0.776241
0.758956
0.741249
0.724232
0.70825
0.693359
0.679512
0.666637
0.654656
0.643493
0.633078
0.623348
0.614242
0.605703
0.597678
0.590116
0.582971
0.576207
0.569792
0.563697
0.557895
0.552363
0.547079
0.54202
0.537167
0.5325
0.528004
0.523664
0.519464
0.515394
0.511439
0.507589
0.503833
0.500162
0.496567
0.493039
0.48957
0.486154
0.482785
0.479455
0.476161
0.472895
0.469655
0.466436
0.463233
0.460045
0.456869
0.453701
0.45054
0.447385
0.444233
0.441082
0.437931
0.434776
0.431615
0.428444
0.425258
0.422049
0.41881
0.415532
0.412202
0.408806
0.405324
0.401734
0.398007
0.394107
0.389985
0.385576
0.380788
0.375489
0.369477
0.362447
0.353901
0.343018
0.328428
0.30803
0.279881
0.246837
0.220199
0.206767
0.201988
0.200552
0.200149
0.20004
0.20001
0.200003
0.200001
0.2
0.2
0.2
0.2
0.2
0.2
0.2
0.2
0.2
0.2
0.2
0.2
0.2
0.2
0.2
0.2
0.2
0.2
0.2
0.2
0.2
0.2
0.2
0.2
0.2
0.2
0.2
0.2
0.2
0.2
0.2
0.2
0.2
0.2
0.2
0.2
0.2
0.2
0.2
0.2
0.2
0.2
0.2
0.2
0.2
0.2
0.2
0.2
0.2
0.2
0.2
0.2
0.2
0.2
0.2
0.2
0.2
0.2
0.2
0.799936
0.799136
0.794663
0.783993
0.768787
0.751879
0.734962
0.718743
0.703451
0.689128
0.675745
0.663248
0.651575
0.640665
0.63046
0.620901
0.611938
0.603517
0.595589
0.588107
0.581031
0.574325
0.567959
0.561909
0.556148
0.550654
0.545404
0.540377
0.535553
0.530915
0.526447
0.522134
0.517963
0.513919
0.50999
0.506165
0.502433
0.498787
0.495216
0.491711
0.488266
0.484873
0.481525
0.478217
0.474943
0.471696
0.468472
0.465267
0.462078
0.4589
0.455731
0.452568
0.449409
0.446252
0.443095
0.439936
0.436773
0.433603
0.430422
0.427226
0.424009
0.420765
0.417484
0.414157
0.41077
0.407306
0.403746
0.400063
0.396228
0.392198
0.38792
0.383319
0.378286
0.372669
0.366237
0.358628
0.349257
0.337158
0.320754
0.29788
0.267631
0.235931
0.214174
0.20454
0.201316
0.200365
0.200099
0.200026
0.200007
0.200002
0.2
0.2
0.2
0.2
0.2
0.2
0.2
0.2
0.2
0.2
0.2
0.2
0.2
0.2
0.2
0.2
0.2
0.2
0.2
0.2
0.2
0.2
0.2
0.2
0.2
0.2
0.2
0.2
0.2
0.2
0.2
0.2
0.2
0.2
0.2
0.2
0.2
0.2
0.2
0.2
0.2
0.2
0.2
0.2
0.2
0.2
0.2
0.2
0.2
0.2
0.2
0.2
0.2
0.2
0.2
0.2
0.2
0.2
0.2
0.2
0.798232
0.794712
0.786511
0.773823
0.75864
0.742686
0.726906
0.711726
0.697311
0.683708
0.670913
0.658894
0.647612
0.637024
0.627084
0.617747
0.608966
0.600699
0.592899
0.585525
0.578539
0.571913
0.56562
0.559635
0.553935
0.548498
0.543301
0.538325
0.53355
0.52896
0.524538
0.520269
0.516141
0.512139
0.50825
0.504466
0.500774
0.497167
0.493634
0.490167
0.486759
0.483401
0.480087
0.476812
0.473567
0.470349
0.467151
0.463969
0.460799
0.457638
0.454482
0.451328
0.448174
0.445019
0.44186
0.438695
0.435521
0.432336
0.429135
0.425914
0.422668
0.419389
0.416068
0.412693
0.409251
0.405723
0.402086
0.398314
0.394372
0.390213
0.385776
0.380976
0.37569
0.36974
0.362852
0.354599
0.34428
0.330741
0.312174
0.286541
0.254828
0.226077
0.209457
0.202918
0.200837
0.200232
0.200063
0.200017
0.200004
0.200001
0.2
0.2
0.2
0.2
0.2
0.2
0.2
0.2
0.2
0.2
0.2
0.2
0.2
0.2
0.2
0.2
0.2
0.2
0.2
0.2
0.2
0.2
0.2
0.2
0.2
0.2
0.2
0.2
0.2
0.2
0.2
0.2
0.2
0.2
0.2
0.2
0.2
0.2
0.2
0.2
0.2
0.2
0.2
0.2
0.2
0.2
0.2
0.2
0.2
0.2
0.2
0.2
0.2
0.2
0.2
0.2
0.2
0.2
0.2
0.2
0.790677
0.784223
0.77399
0.761072
0.746809
0.732158
0.717667
0.703623
0.690165
0.677355
0.665212
0.653731
0.642894
0.632673
0.623039
0.613956
0.60539
0.597302
0.589651
0.582403
0.575528
0.569
0.562796
0.556893
0.551271
0.545906
0.54078
0.535871
0.531161
0.526634
0.522273
0.518064
0.513994
0.510049
0.506217
0.502487
0.498851
0.495297
0.491817
0.488401
0.485042
0.481733
0.478466
0.475235
0.472032
0.468851
0.465688
0.462537
0.459394
0.456256
0.453118
0.449978
0.446834
0.443683
0.440524
0.437353
0.434169
0.430968
0.427747
0.424501
0.421225
0.417909
0.414546
0.411123
0.407623
0.404029
0.400316
0.396453
0.392402
0.388111
0.383508
0.378496
0.372934
0.366611
0.359204
0.350193
0.33873
0.323424
0.302262
0.273815
0.242023
0.217826
0.206016
0.201804
0.200513
0.200142
0.200039
0.20001
0.200003
0.200001
0.2
0.2
0.2
0.2
0.2
0.2
0.2
0.2
0.2
0.2
0.2
0.2
0.2
0.2
0.2
0.2
0.2
0.2
0.2
0.2
0.2
0.2
0.2
0.2
0.2
0.2
0.2
0.2
0.2
0.2
0.2
0.2
0.2
0.2
0.2
0.2
0.2
0.2
0.2
0.2
0.2
0.2
0.2
0.2
0.2
0.2
0.2
0.2
0.2
0.2
0.2
0.2
0.2
0.2
0.2
0.2
0.2
0.2
0.2
0.2
0.776808
0.769334
0.759088
0.747074
0.734145
0.720896
0.707702
0.694791
0.682296
0.670294
0.658826
0.647907
0.637539
0.62771
0.618404
0.609597
0.601262
0.593367
0.585879
0.57877
0.572018
0.565602
0.559501
0.553695
0.548164
0.542887
0.537845
0.533017
0.528387
0.523937
0.519652
0.515518
0.511521
0.507647
0.503885
0.500225
0.496658
0.493171
0.489757
0.486406
0.483111
0.479864
0.476656
0.47348
0.470329
0.467197
0.464079
0.460967
0.457859
0.45475
0.451636
0.448514
0.445383
0.442239
0.43908
0.435905
0.432711
0.429494
0.426251
0.422979
0.41967
0.416317
0.412909
0.409434
0.405875
0.40221
0.398414
0.394453
0.390284
0.385848
0.381064
0.375816
0.369939
0.363182
0.355151
0.345211
0.332313
0.314792
0.29059
0.259819
0.230072
0.21145
0.203651
0.201072
0.200303
0.200084
0.200023
0.200006
0.200002
0.2
0.2
0.2
0.2
0.2
0.2
0.2
0.2
0.2
0.2
0.2
0.2
0.2
0.2
0.2
0.2
0.2
0.2
0.2
0.2
0.2
0.2
0.2
0.2
0.2
0.2
0.2
0.2
0.2
0.2
0.2
0.2
0.2
0.2
0.2
0.2
0.2
0.2
0.2
0.2
0.2
0.2
0.2
0.2
0.2
0.2
0.2
0.2
0.2
0.2
0.2
0.2
0.2
0.2
0.2
0.2
0.2
0.2
0.2
0.2
0.2
0.759993
0.752845
0.743512
0.732772
0.721232
0.709326
0.697351
0.685509
0.673935
0.662716
0.65191
0.64155
0.631652
0.62222
0.613249
0.604725
0.596627
0.588929
0.581609
0.574648
0.568028
0.561732
0.555744
0.550045
0.544616
0.539438
0.534492
0.529759
0.525222
0.520863
0.516669
0.512623
0.508712
0.504924
0.501246
0.497669
0.494183
0.490778
0.487444
0.484173
0.480955
0.477782
0.474645
0.471538
0.468452
0.465379
0.462315
0.459253
0.456188
0.453115
0.450031
0.446932
0.443816
0.440681
0.437524
0.434344
0.431139
0.427905
0.424639
0.421336
0.417991
0.414595
0.411137
0.407605
0.403979
0.400237
0.39635
0.392282
0.387982
0.383381
0.378386
0.372861
0.366607
0.359319
0.35051
0.339385
0.324637
0.304329
0.27684
0.245205
0.219892
0.206908
0.202114
0.200612
0.200172
0.200048
0.200013
0.200003
0.200001
0.2
0.2
0.2
0.2
0.2
0.2
0.2
0.2
0.2
0.2
0.2
0.2
0.2
0.2
0.2
0.2
0.2
0.2
0.2
0.2
0.2
0.2
0.2
0.2
0.2
0.2
0.2
0.2
0.2
0.2
0.2
0.2
0.2
0.2
0.2
0.2
0.2
0.2
0.2
0.2
0.2
0.2
0.2
0.2
0.2
0.2
0.2
0.2
0.2
0.2
0.2
0.2
0.2
0.2
0.2
0.2
0.2
0.2
0.2
0.2
0.2
0.742833
0.736427
0.728188
0.718703
0.708437
0.697737
0.686858
0.675988
0.66526
0.654773
0.644593
0.634767
0.625324
0.616279
0.607635
0.599387
0.59152
0.584016
0.576864
0.570052
0.563567
0.557397
0.551527
0.54594
0.540621
0.535552
0.530713
0.526086
0.521654
0.5174
0.513309
0.509364
0.505553
0.501862
0.498281
0.4948
0.49141
0.488099
0.48486
0.481681
0.478554
0.47547
0.472419
0.469394
0.466385
0.463385
0.460387
0.457384
0.454371
0.451343
0.448295
0.445225
0.442128
0.439004
0.43585
0.432665
0.429446
0.42619
0.422896
0.419559
0.416171
0.412726
0.409211
0.405612
0.401909
0.398079
0.394089
0.389895
0.385441
0.380646
0.375399
0.369537
0.362815
0.354853
0.345035
0.332346
0.315164
0.291444
0.261088
0.231231
0.212098
0.203916
0.201166
0.200334
0.200094
0.200026
0.200007
0.200002
0.2
0.2
0.2
0.2
0.2
0.2
0.2
0.2
0.2
0.2
0.2
0.2
0.2
0.2
0.2
0.2
0.2
0.2
0.2
0.2
0.2
0.2
0.2
0.2
0.2
0.2
0.2
0.2
0.2
0.2
0.2
0.2
0.2
0.2
0.2
0.2
0.2
0.2
0.2
0.2
0.2
0.2
0.2
0.2
0.2
0.2
0.2
0.2
0.2
0.2
0.2
0.2
0.2
0.2
0.2
0.2
0.2
0.2
0.2
0.2
0.2
0.2
0.726427
0.720777
0.713534
0.705143
0.695974
0.686315
0.676393
0.66638
0.65641
0.646584
0.636977
0.627646
0.618628
0.609945
0.60161
0.59362
0.585968
0.578649
0.571659
0.564991
0.558638
0.552592
0.54684
0.541369
0.536165
0.531209
0.526485
0.521975
0.51766
0.513524
0.509549
0.505717
0.502017
0.498437
0.494964
0.491592
0.48831
0.485108
0.481976
0.478905
0.475885
0.472906
0.469957
0.467029
0.464112
0.461199
0.45828
0.455349
0.452399
0.449424
0.44642
0.443383
0.440309
0.437197
0.434047
0.430855
0.427619
0.424339
0.421011
0.417631
0.414192
0.410686
0.407102
0.403424
0.399629
0.395693
0.391578
0.387235
0.382594
0.377562
0.372001
0.365711
0.358385
0.349535
0.338359
0.323546
0.303163
0.275662
0.244265
0.219418
0.206763
0.202087
0.200611
0.200174
0.200049
0.200013
0.200004
0.200001
0.2
0.2
0.2
0.2
0.2
0.2
0.2
0.2
0.2
0.2
0.2
0.2
0.2
0.2
0.2
0.2
0.2
0.2
0.2
0.2
0.2
0.2
0.2
0.2
0.2
0.2
0.2
0.2
0.2
0.2
0.2
0.2
0.2
0.2
0.2
0.2
0.2
0.2
0.2
0.2
0.2
0.2
0.2
0.2
0.2
0.2
0.2
0.2
0.2
0.2
0.2
0.2
0.2
0.2
0.2
0.2
0.2
0.2
0.2
0.2
0.2
0.2
0.711121
0.706121
0.699706
0.692221
0.683965
0.675181
0.66607
0.656794
0.647483
0.638239
0.629143
0.620256
0.611621
0.603266
0.595206
0.587446
0.579988
0.572838
0.565996
0.559461
0.553233
0.547303
0.541664
0.536307
0.531216
0.526379
0.521777
0.517393
0.513207
0.509199
0.50535
0.501645
0.498068
0.494608
0.491256
0.488005
0.484844
0.481764
0.478757
0.475811
0.472915
0.470058
0.467229
0.464416
0.461609
0.458798
0.455974
0.453128
0.450254
0.447344
0.444393
0.441395
0.438349
0.435253
0.432104
0.428902
0.425646
0.422334
0.418963
0.415529
0.412027
0.408446
0.404776
0.400998
0.397091
0.393023
0.388753
0.384222
0.379348
0.374012
0.368046
0.361194
0.353058
0.342989
0.329922
0.312177
0.287773
0.257192
0.228385
0.210791
0.203484
0.201045
0.200303
0.200086
0.200024
0.200007
0.200002
0.2
0.2
0.2
0.2
0.2
0.2
0.2
0.2
0.2
0.2
0.2
0.2
0.2
0.2
0.2
0.2
0.2
0.2
0.2
0.2
0.2
0.2
0.2
0.2
0.2
0.2
0.2
0.2
0.2
0.2
0.2
0.2
0.2
0.2
0.2
0.2
0.2
0.2
0.2
0.2
0.2
0.2
0.2
0.2
0.2
0.2
0.2
0.2
0.2
0.2
0.2
0.2
0.2
0.2
0.2
0.2
0.2
0.2
0.2
0.2
0.2
0.2
0.2
0.696971
0.692499
0.686747
0.67999
0.672472
0.664404
0.655965
0.647306
0.638552
0.629805
0.621148
0.612645
0.604341
0.596267
0.588441
0.580877
0.573587
0.566581
0.559868
0.55345
0.547328
0.5415
0.535963
0.530709
0.525728
0.521008
0.516533
0.512282
0.508234
0.504367
0.500659
0.497091
0.493649
0.490322
0.487103
0.483984
0.480958
0.478016
0.47515
0.472348
0.469596
0.466882
0.464193
0.461516
0.458839
0.45615
0.453441
0.4507
0.447917
0.445085
0.442196
0.439247
0.436233
0.433154
0.430008
0.426793
0.423509
0.420156
0.41673
0.413227
0.409643
0.405966
0.402185
0.398279
0.394226
0.38999
0.385521
0.380746
0.375564
0.369828
0.363319
0.355699
0.346428
0.334619
0.318836
0.297104
0.268459
0.237837
0.215783
0.205375
0.201658
0.20049
0.200142
0.20004
0.200011
0.200003
0.200001
0.2
0.2
0.2
0.2
0.2
0.2
0.2
0.2
0.2
0.2
0.2
0.2
0.2
0.2
0.2
0.2
0.2
0.2
0.2
0.2
0.2
0.2
0.2
0.2
0.2
0.2
0.2
0.2
0.2
0.2
0.2
0.2
0.2
0.2
0.2
0.2
0.2
0.2
0.2
0.2
0.2
0.2
0.2
0.2
0.2
0.2
0.2
0.2
0.2
0.2
0.2
0.2
0.2
0.2
0.2
0.2
0.2
0.2
0.2
0.2
0.2
0.2
0.2
0.683935
0.679878
0.674646
0.668458
0.661523
0.654024
0.646123
0.637963
0.629663
0.621324
0.613029
0.604841
0.596807
0.588958
0.581319
0.573912
0.566756
0.559867
0.553254
0.546924
0.540883
0.535132
0.529673
0.524504
0.51962
0.515011
0.510662
0.506552
0.502655
0.498944
0.495392
0.491976
0.488682
0.485499
0.482423
0.479448
0.47657
0.473784
0.471078
0.468441
0.465857
0.463312
0.460789
0.458275
0.455754
0.453215
0.450644
0.448029
0.445358
0.44262
0.43981
0.436919
0.433945
0.430885
0.427739
0.424507
0.421188
0.41778
0.414283
0.410691
0.406998
0.403193
0.399264
0.395189
0.39094
0.386475
0.381735
0.37663
0.371032
0.364747
0.35748
0.34876
0.337825
0.323428
0.303727
0.277152
0.246341
0.221058
0.207591
0.202417
0.20073
0.200215
0.200062
0.200018
0.200005
0.200001
0.2
0.2
0.2
0.2
0.2
0.2
0.2
0.2
0.2
0.2
0.2
0.2
0.2
0.2
0.2
0.2
0.2
0.2
0.2
0.2
0.2
0.2
0.2
0.2
0.2
0.2
0.2
0.2
0.2
0.2
0.2
0.2
0.2
0.2
0.2
0.2
0.2
0.2
0.2
0.2
0.2
0.2
0.2
0.2
0.2
0.2
0.2
0.2
0.2
0.2
0.2
0.2
0.2
0.2
0.2
0.2
0.2
0.2
0.2
0.2
0.2
0.2
0.2
0.2
0.671944
0.668207
0.663369
0.657614
0.651121
0.644055
0.636566
0.628789
0.620839
0.612815
0.604798
0.59685
0.589016
0.581331
0.573829
0.566537
0.559476
0.552663
0.546111
0.539831
0.533831
0.528118
0.5227
0.517582
0.512767
0.508251
0.504024
0.500061
0.496331
0.492797
0.489422
0.486179
0.483047
0.480021
0.477096
0.474276
0.471561
0.468947
0.466426
0.463983
0.461599
0.459255
0.456933
0.454615
0.452285
0.449927
0.447527
0.445068
0.442537
0.439919
0.437205
0.434387
0.43146
0.428423
0.425277
0.422019
0.418652
0.415174
0.411582
0.407872
0.404033
0.400054
0.395919
0.391603
0.387075
0.382289
0.377165
0.371594
0.365405
0.358331
0.349949
0.339572
0.326075
0.307754
0.282844
0.252643
0.225583
0.209714
0.203195
0.200988
0.200297
0.200088
0.200026
0.200007
0.200002
0.200001
0.2
0.2
0.2
0.2
0.2
0.2
0.2
0.2
0.2
0.2
0.2
0.2
0.2
0.2
0.2
0.2
0.2
0.2
0.2
0.2
0.2
0.2
0.2
0.2
0.2
0.2
0.2
0.2
0.2
0.2
0.2
0.2
0.2
0.2
0.2
0.2
0.2
0.2
0.2
0.2
0.2
0.2
0.2
0.2
0.2
0.2
0.2
0.2
0.2
0.2
0.2
0.2
0.2
0.2
0.2
0.2
0.2
0.2
0.2
0.2
0.2
0.2
0.2
0.2
0.660927
0.657429
0.652879
0.647433
0.641255
0.634495
0.627296
0.619786
0.612079
0.604273
0.596443
0.58865
0.580942
0.573361
0.565943
0.558716
0.551701
0.544916
0.538374
0.532087
0.526069
0.520332
0.514893
0.509768
0.504971
0.500511
0.496387
0.492576
0.489037
0.485714
0.482551
0.479508
0.47656
0.4737
0.470936
0.468279
0.46574
0.463322
0.461016
0.458804
0.456663
0.454567
0.452492
0.450417
0.448323
0.446193
0.444008
0.44175
0.439397
0.436933
0.434342
0.431616
0.428749
0.42574
0.42259
0.419299
0.415868
0.412295
0.408577
0.404704
0.400662
0.396437
0.391986
0.387263
0.382272
0.377007
0.371363
0.365125
0.358064
0.349797
0.339679
0.326652
0.309093
0.285225
0.255791
0.228254
0.211147
0.203772
0.201194
0.200368
0.200112
0.200033
0.20001
0.200003
0.200001
0.2
0.2
0.2
0.2
0.2
0.2
0.2
0.2
0.2
0.2
0.2
0.2
0.2
0.2
0.2
0.2
0.2
0.2
0.2
0.2
0.2
0.2
0.2
0.2
0.2
0.2
0.2
0.2
0.2
0.2
0.2
0.2
0.2
0.2
0.2
0.2
0.2
0.2
0.2
0.2
0.2
0.2
0.2
0.2
0.2
0.2
0.2
0.2
0.2
0.2
0.2
0.2
0.2
0.2
0.2
0.2
0.2
0.2
0.2
0.2
0.2
0.2
0.2
0.2
0.2
0.650816
0.64749
0.643132
0.637886
0.631901
0.625324
0.618291
0.610931
0.603356
0.595661
0.587921
0.580198
0.572544
0.565004
0.557612
0.550392
0.543364
0.536543
0.529939
0.523568
0.517443
0.511585
0.50602
0.50063
0.495441
0.490669
0.486563
0.482937
0.479675
0.476682
0.473857
0.471127
0.468454
0.465832
0.463282
0.460839
0.458533
0.456378
0.454368
0.452479
0.450679
0.448928
0.447192
0.445445
0.443668
0.441841
0.439946
0.437956
0.435844
0.433585
0.43116
0.428556
0.425768
0.422796
0.41964
0.416304
0.412788
0.409088
0.405197
0.401097
0.396766
0.392162
0.387172
0.381793
0.376005
0.369832
0.36333
0.356092
0.347704
0.337544
0.324571
0.307192
0.283714
0.254976
0.22815
0.211311
0.203909
0.201265
0.200399
0.200124
0.200038
0.200012
0.200004
0.200001
0.2
0.2
0.2
0.2
0.2
0.2
0.2
0.2
0.2
0.2
0.2
0.2
0.2
0.2
0.2
0.2
0.2
0.2
0.2
0.2
0.2
0.2
0.2
0.2
0.2
0.2
0.2
0.2
0.2
0.2
0.2
0.2
0.2
0.2
0.2
0.2
0.2
0.2
0.2
0.2
0.2
0.2
0.2
0.2
0.2
0.2
0.2
0.2
0.2
0.2
0.2
0.2
0.2
0.2
0.2
0.2
0.2
0.2
0.2
0.2
0.2
0.2
0.2
0.2
0.2
0.2
0.641556
0.638339
0.634087
0.628934
0.623026
0.616505
0.609511
0.602174
0.594609
0.586912
0.579162
0.571424
0.563753
0.556187
0.548754
0.541475
0.53436
0.527418
0.520656
0.514084
0.507716
0.501575
0.495188
0.488722
0.482386
0.476425
0.471284
0.467886
0.465114
0.462777
0.46064
0.458542
0.456399
0.454202
0.452008
0.449909
0.447993
0.4463
0.444827
0.443541
0.442377
0.44126
0.440129
0.438949
0.437702
0.436375
0.434944
0.433379
0.431643
0.4297
0.427525
0.425105
0.422435
0.419518
0.416361
0.412968
0.409339
0.405466
0.401333
0.396908
0.392146
0.386873
0.381018
0.374456
0.367134
0.359175
0.350906
0.341986
0.331384
0.318033
0.300338
0.276879
0.249248
0.224744
0.209931
0.20348
0.20115
0.200372
0.200119
0.200038
0.200012
0.200004
0.200001
0.2
0.2
0.2
0.2
0.2
0.2
0.2
0.2
0.2
0.2
0.2
0.2
0.2
0.2
0.2
0.2
0.2
0.2
0.2
0.2
0.2
0.2
0.2
0.2
0.2
0.2
0.2
0.2
0.2
0.2
0.2
0.2
0.2
0.2
0.2
0.2
0.2
0.2
0.2
0.2
0.2
0.2
0.2
0.2
0.2
0.2
0.2
0.2
0.2
0.2
0.2
0.2
0.2
0.2
0.2
0.2
0.2
0.2
0.2
0.2
0.2
0.2
0.2
0.2
0.2
0.2
0.2
0.633095
0.62993
0.625701
0.620537
0.614581
0.607981
0.600884
0.593429
0.58574
0.577923
0.570064
0.562228
0.554463
0.546799
0.539252
0.53183
0.524534
0.517358
0.510298
0.503348
0.496514
0.489006
0.480993
0.472476
0.463419
0.454489
0.446349
0.442281
0.440374
0.439445
0.438799
0.438036
0.436932
0.43545
0.433735
0.432053
0.430678
0.429726
0.42921
0.429073
0.429179
0.429334
0.4294
0.429318
0.429077
0.428679
0.428108
0.427322
0.426264
0.424883
0.423146
0.421042
0.418578
0.415769
0.412629
0.40917
0.405396
0.40129
0.396817
0.391913
0.386473
0.380138
0.372681
0.363763
0.353202
0.341284
0.32888
0.31629
0.301459
0.283154
0.260751
0.236983
0.217984
0.207199
0.202565
0.200868
0.200288
0.200095
0.200031
0.20001
0.200003
0.200001
0.2
0.2
0.2
0.2
0.2
0.2
0.2
0.2
0.2
0.2
0.2
0.2
0.2
0.2
0.2
0.2
0.2
0.2
0.2
0.2
0.2
0.2
0.2
0.2
0.2
0.2
0.2
0.2
0.2
0.2
0.2
0.2
0.2
0.2
0.2
0.2
0.2
0.2
0.2
0.2
0.2
0.2
0.2
0.2
0.2
0.2
0.2
0.2
0.2
0.2
0.2
0.2
0.2
0.2
0.2
0.2
0.2
0.2
0.2
0.2
0.2
0.2
0.2
0.2
0.2
0.2
0.2
0.2
0.625353
0.622168
0.617867
0.612586
0.606477
0.599701
0.592417
0.584689
0.576603
0.568543
0.560476
0.552456
0.544519
0.536676
0.528928
0.521264
0.51366
0.506088
0.498515
0.490901
0.482453
0.472645
0.461278
0.448489
0.433914
0.420001
0.405213
0.399965
0.3994
0.401533
0.40398
0.405845
0.406558
0.405962
0.404368
0.401532
0.400558
0.400597
0.401683
0.403733
0.40645
0.409232
0.411696
0.413735
0.415396
0.416748
0.417805
0.418508
0.418747
0.418431
0.417514
0.415999
0.413921
0.411325
0.408253
0.404733
0.400772
0.396342
0.391371
0.385721
0.379084
0.370925
0.36049
0.346933
0.329879
0.310016
0.288859
0.269431
0.251036
0.234601
0.22039
0.210068
0.204208
0.201563
0.200545
0.200186
0.200063
0.200021
0.200007
0.200002
0.200001
0.2
0.2
0.2
0.2
0.2
0.2
0.2
0.2
0.2
0.2
0.2
0.2
0.2
0.2
0.2
0.2
0.2
0.2
0.2
0.2
0.2
0.2
0.2
0.2
0.2
0.2
0.2
0.2
0.2
0.2
0.2
0.2
0.2
0.2
0.2
0.2
0.2
0.2
0.2
0.2
0.2
0.2
0.2
0.2
0.2
0.2
0.2
0.2
0.2
0.2
0.2
0.2
0.2
0.2
0.2
0.2
0.2
0.2
0.2
0.2
0.2
0.2
0.2
0.2
0.2
0.2
0.2
0.2
0.2
0.618279
0.614989
0.610502
0.604961
0.598534
0.591406
0.58376
0.575696
0.567357
0.559062
0.55019
0.541886
0.533692
0.525583
0.517527
0.509483
0.501391
0.493177
0.484744
0.475915
0.46431
0.449686
0.43167
0.412874
0.39063
0.374228
0.353198
0.348374
0.348584
0.355553
0.362122
0.367228
0.36979
0.369145
0.362991
0.352647
0.348945
0.349338
0.352437
0.35834
0.366589
0.374903
0.382043
0.387923
0.392909
0.397342
0.401356
0.404856
0.407577
0.409289
0.409908
0.409477
0.408102
0.405904
0.402985
0.399413
0.395202
0.390301
0.384559
0.377685
0.369069
0.35758
0.341611
0.319705
0.292172
0.262447
0.236882
0.221151
0.212842
0.208114
0.204487
0.202126
0.200865
0.200313
0.200107
0.200036
0.200013
0.200004
0.200001
0.200001
0.2
0.2
0.2
0.2
0.2
0.2
0.2
0.2
0.2
0.2
0.2
0.2
0.2
0.2
0.2
0.2
0.2
0.2
0.2
0.2
0.2
0.2
0.2
0.2
0.2
0.2
0.2
0.2
0.2
0.2
0.2
0.2
0.2
0.2
0.2
0.2
0.2
0.2
0.2
0.2
0.2
0.2
0.2
0.2
0.2
0.2
0.2
0.2
0.2
0.2
0.2
0.2
0.2
0.2
0.2
0.2
0.2
0.2
0.2
0.2
0.2
0.2
0.2
0.2
0.2
0.2
0.2
0.2
0.2
0.2
0.611828
0.60834
0.603533
0.597559
0.59061
0.582915
0.574705
0.56614
0.55741
0.548716
0.539638
0.530719
0.521676
0.513173
0.504665
0.496042
0.48718
0.477908
0.467982
0.455053
0.438066
0.414743
0.38686
0.365234
0.337606
0.330417
0.321935
0.258485
0.251635
0.334365
0.338665
0.342521
0.344071
0.341074
0.327962
0.308244
0.301926
0.298758
0.299058
0.304875
0.318442
0.332933
0.344622
0.353828
0.361812
0.369511
0.377294
0.384938
0.391663
0.396734
0.39988
0.401193
0.400924
0.399339
0.396654
0.392996
0.388388
0.382716
0.375668
0.366635
0.354551
0.337108
0.311679
0.27804
0.243272
0.218864
0.20716
0.203609
0.202124
0.201633
0.200943
0.200461
0.200184
0.200062
0.200019
0.200006
0.200002
0.200001
0.2
0.2
0.2
0.2
0.2
0.2
0.2
0.2
0.2
0.2
0.2
0.2
0.2
0.2
0.2
0.2
0.2
0.2
0.2
0.2
0.2
0.2
0.2
0.2
0.2
0.2
0.2
0.2
0.2
0.2
0.2
0.2
0.2
0.2
0.2
0.2
0.2
0.2
0.2
0.2
0.2
0.2
0.2
0.2
0.2
0.2
0.2
0.2
0.2
0.2
0.2
0.2
0.2
0.2
0.2
0.2
0.2
0.2
0.2
0.2
0.2
0.2
0.2
0.2
0.2
0.2
0.2
0.2
0.2
0.2
0.2
0.2
0.605951
0.602161
0.596874
0.590242
0.582498
0.573957
0.564938
0.555685
0.546399
0.537176
0.527779
0.5185
0.508953
0.498943
0.489737
0.480201
0.470057
0.458916
0.446141
0.426377
0.400338
0.36402
0.326596
0.315017
0.300634
0.209632
0.200126
0.200149
0.200578
0.204727
0.26059
0.3258
0.326406
0.31968
0.294687
0.28097
0.215068
0.200597
0.205973
0.242681
0.305365
0.313512
0.320546
0.326324
0.332257
0.339606
0.349101
0.360556
0.372177
0.381644
0.388087
0.391618
0.392698
0.391801
0.389284
0.385336
0.379939
0.372819
0.363344
0.350286
0.331566
0.304013
0.266668
0.230842
0.210358
0.202953
0.200997
0.200077
0.200052
0.200411
0.200209
0.200111
0.200042
0.200012
0.200003
0.200001
0.2
0.2
0.2
0.2
0.2
0.2
0.2
0.2
0.2
0.2
0.2
0.2
0.2
0.2
0.2
0.2
0.2
0.2
0.2
0.2
0.2
0.2
0.2
0.2
0.2
0.2
0.2
0.2
0.2
0.2
0.2
0.2
0.2
0.2
0.2
0.2
0.2
0.2
0.2
0.2
0.2
0.2
0.2
0.2
0.2
0.2
0.2
0.2
0.2
0.2
0.2
0.2
0.2
0.2
0.2
0.2
0.2
0.2
0.2
0.2
0.2
0.2
0.2
0.2
0.2
0.2
0.2
0.2
0.2
0.2
0.2
0.2
0.2
0.2
0.600598
0.596388
0.590414
0.582814
0.573886
0.5641
0.553955
0.543781
0.533753
0.523882
0.51402
0.504231
0.494194
0.483397
0.471725
0.460573
0.448036
0.433071
0.412113
0.378541
0.34398
0.297032
0.275474
0.208007
0.200096
0.200019
0.2
0.2
0.200001
0.200012
0.200278
0.233841
0.30214
0.289619
0.251634
0.201348
0.200004
0.200001
0.200013
0.200235
0.236744
0.300641
0.302675
0.303306
0.304787
0.308925
0.317658
0.332579
0.35113
0.366116
0.37617
0.381901
0.384178
0.383721
0.38099
0.376128
0.368918
0.358733
0.344413
0.323797
0.293743
0.255682
0.222729
0.206475
0.201416
0.200353
0.200007
0.2
0.2
0.200001
0.200005
0.200023
0.200008
0.200001
0.2
0.2
0.2
0.2
0.2
0.2
0.2
0.2
0.2
0.2
0.2
0.2
0.2
0.2
0.2
0.2
0.2
0.2
0.2
0.2
0.2
0.2
0.2
0.2
0.2
0.2
0.2
0.2
0.2
0.2
0.2
0.2
0.2
0.2
0.2
0.2
0.2
0.2
0.2
0.2
0.2
0.2
0.2
0.2
0.2
0.2
0.2
0.2
0.2
0.2
0.2
0.2
0.2
0.2
0.2
0.2
0.2
0.2
0.2
0.2
0.2
0.2
0.2
0.2
0.2
0.2
0.2
0.2
0.2
0.2
0.2
0.2
0.2
0.2
0.2
0.2
0.595719
0.590962
0.584035
0.575006
0.56427
0.552607
0.540878
0.529477
0.518489
0.507827
0.497309
0.486795
0.475916
0.464114
0.450164
0.434169
0.416259
0.391543
0.346824
0.291672
0.259012
0.224626
0.200319
0.200019
0.2
0.2
0.2
0.2
0.2
0.2
0.200001
0.200691
0.2136
0.247989
0.204777
0.200054
0.2
0.2
0.2
0.200001
0.200337
0.253427
0.220642
0.211024
0.213752
0.239657
0.275332
0.32696
0.343172
0.3571
0.367477
0.373787
0.376304
0.375472
0.371477
0.364013
0.352298
0.335189
0.311413
0.279553
0.243421
0.216113
0.204451
0.20094
0.200134
0.200001
0.2
0.2
0.2
0.2
0.2
0.200001
0.200001
0.2
0.2
0.2
0.2
0.2
0.2
0.2
0.2
0.2
0.2
0.2
0.2
0.2
0.2
0.2
0.2
0.2
0.2
0.2
0.2
0.2
0.2
0.2
0.2
0.2
0.2
0.2
0.2
0.2
0.2
0.2
0.2
0.2
0.2
0.2
0.2
0.2
0.2
0.2
0.2
0.2
0.2
0.2
0.2
0.2
0.2
0.2
0.2
0.2
0.2
0.2
0.2
0.2
0.2
0.2
0.2
0.2
0.2
0.2
0.2
0.2
0.2
0.2
0.2
0.2
0.2
0.2
0.2
0.2
0.2
0.2
0.2
0.2
0.2
0.2
0.2
0.2
0.591272
0.585855
0.577639
0.566453
0.552783
0.538046
0.523967
0.510863
0.49862
0.486942
0.475466
0.463806
0.451407
0.437465
0.420466
0.395389
0.362356
0.311557
0.243041
0.212081
0.200485
0.200099
0.200001
0.2
0.2
0.2
0.2
0.2
0.2
0.2
0.2
0.200002
0.200704
0.216774
0.200872
0.200007
0.2
0.2
0.2
0.2
0.201843
0.218174
0.201377
0.200057
0.200115
0.20518
0.227623
0.32276
0.33846
0.35152
0.361438
0.367357
0.369067
0.366385
0.358459
0.343677
0.320607
0.289295
0.255749
0.226825
0.209634
0.202718
0.200634
0.200115
0.200013
0.2
0.2
0.2
0.2
0.2
0.2
0.2
0.2
0.2
0.2
0.2
0.2
0.2
0.2
0.2
0.2
0.2
0.2
0.2
0.2
0.2
0.2
0.2
0.2
0.2
0.2
0.2
0.2
0.2
0.2
0.2
0.2
0.2
0.2
0.2
0.2
0.2
0.2
0.2
0.2
0.2
0.2
0.2
0.2
0.2
0.2
0.2
0.2
0.2
0.2
0.2
0.2
0.2
0.2
0.2
0.2
0.2
0.2
0.2
0.2
0.2
0.2
0.2
0.2
0.2
0.2
0.2
0.2
0.2
0.2
0.2
0.2
0.2
0.2
0.2
0.2
0.2
0.2
0.2
0.2
0.2
0.2
0.2
0.2
0.2
0.587237
0.581128
0.57128
0.556764
0.537773
0.517012
0.498876
0.483083
0.469227
0.456313
0.443439
0.429866
0.414619
0.39625
0.372143
0.335171
0.273619
0.219406
0.201786
0.20006
0.200002
0.200001
0.2
0.2
0.2
0.2
0.2
0.2
0.2
0.2
0.2
0.2
0.200026
0.203626
0.200059
0.2
0.2
0.2
0.2
0.2
0.200343
0.203092
0.200032
0.2
0.2
0.200676
0.21395
0.320008
0.335564
0.348151
0.357321
0.361989
0.361196
0.352869
0.333093
0.29918
0.257957
0.221347
0.208407
0.20289
0.200899
0.200273
0.200089
0.200019
0.200003
0.2
0.2
0.2
0.2
0.2
0.2
0.2
0.2
0.2
0.2
0.2
0.2
0.2
0.2
0.2
0.2
0.2
0.2
0.2
0.2
0.2
0.2
0.2
0.2
0.2
0.2
0.2
0.2
0.2
0.2
0.2
0.2
0.2
0.2
0.2
0.2
0.2
0.2
0.2
0.2
0.2
0.2
0.2
0.2
0.2
0.2
0.2
0.2
0.2
0.2
0.2
0.2
0.2
0.2
0.2
0.2
0.2
0.2
0.2
0.2
0.2
0.2
0.2
0.2
0.2
0.2
0.2
0.2
0.2
0.2
0.2
0.2
0.2
0.2
0.2
0.2
0.2
0.2
0.2
0.2
0.2
0.2
0.2
0.2
0.2
0.583612
0.577002
0.56547
0.545457
0.512036
0.466262
0.427605
0.393836
0.412025
0.404115
0.390516
0.374953
0.356173
0.331631
0.299084
0.253142
0.211402
0.200468
0.200008
0.2
0.2
0.2
0.2
0.2
0.2
0.2
0.2
0.2
0.2
0.2
0.2
0.2
0.2
0.200734
0.200003
0.2
0.2
0.2
0.2
0.2
0.200045
0.200255
0.2
0.2
0.2
0.200051
0.231536
0.319021
0.334209
0.345798
0.353098
0.354285
0.346631
0.325183
0.28097
0.2265
0.205922
0.200716
0.20002
0.200007
0.200007
0.200004
0.200011
0.200003
0.200001
0.2
0.2
0.2
0.2
0.2
0.2
0.2
0.2
0.2
0.2
0.2
0.2
0.2
0.2
0.2
0.2
0.2
0.2
0.2
0.2
0.2
0.2
0.2
0.2
0.2
0.2
0.2
0.2
0.2
0.2
0.2
0.2
0.2
0.2
0.2
0.2
0.2
0.2
0.2
0.2
0.2
0.2
0.2
0.2
0.2
0.2
0.2
0.2
0.2
0.2
0.2
0.2
0.2
0.2
0.2
0.2
0.2
0.2
0.2
0.2
0.2
0.2
0.2
0.2
0.2
0.2
0.2
0.2
0.2
0.2
0.2
0.2
0.2
0.2
0.2
0.2
0.2
0.2
0.2
0.2
0.2
0.2
0.2
0.2
0.2
0.580377
0.573779
0.562152
0.541768
0.508279
0.46365
0.328068
0.282654
0.292491
0.300572
0.293013
0.279556
0.27486
0.249738
0.227043
0.210518
0.200174
0.200003
0.2
0.2
0.2
0.2
0.2
0.2
0.2
0.2
0.2
0.2
0.2
0.2
0.2
0.2
0.2
0.200138
0.200001
0.2
0.2
0.2
0.2
0.2
0.200005
0.200015
0.2
0.2
0.2
0.200003
0.302062
0.320291
0.333709
0.342609
0.345161
0.337979
0.31643
0.275976
0.227119
0.2004
0.200031
0.200002
0.2
0.2
0.2
0.2
0.2
0.2
0.2
0.2
0.2
0.2
0.2
0.2
0.2
0.2
0.2
0.2
0.2
0.2
0.2
0.2
0.2
0.2
0.2
0.2
0.2
0.2
0.2
0.2
0.2
0.2
0.2
0.2
0.2
0.2
0.2
0.2
0.2
0.2
0.2
0.2
0.2
0.2
0.2
0.2
0.2
0.2
0.2
0.2
0.2
0.2
0.2
0.2
0.2
0.2
0.2
0.2
0.2
0.2
0.2
0.2
0.2
0.2
0.2
0.2
0.2
0.2
0.2
0.2
0.2
0.2
0.2
0.2
0.2
0.2
0.2
0.2
0.2
0.2
0.2
0.2
0.2
0.2
0.2
0.2
0.2
0.2
0.2
0.2
0.2
0.2
0.2
0.2
0.577321
0.570986
0.559951
0.540841
0.51009
0.470413
0.458721
0.203926
0.202296
0.200011
0.200338
0.205455
0.22574
0.202487
0.200536
0.200064
0.200002
0.2
0.2
0.2
0.2
0.2
0.2
0.2
0.2
0.2
0.2
0.2
0.2
0.2
0.2
0.2
0.2
0.200024
0.2
0.2
0.2
0.2
0.2
0.2
0.200001
0.200001
0.2
0.2
0.2
0.202573
0.303924
0.320831
0.331355
0.334752
0.329009
0.310177
0.276538
0.238703
0.200585
0.200003
0.2
0.2
0.2
0.2
0.2
0.2
0.2
0.2
0.2
0.2
0.2
0.2
0.2
0.2
0.2
0.2
0.2
0.2
0.2
0.2
0.2
0.2
0.2
0.2
0.2
0.2
0.2
0.2
0.2
0.2
0.2
0.2
0.2
0.2
0.2
0.2
0.2
0.2
0.2
0.2
0.2
0.2
0.2
0.2
0.2
0.2
0.2
0.2
0.2
0.2
0.2
0.2
0.2
0.2
0.2
0.2
0.2
0.2
0.2
0.2
0.2
0.2
0.2
0.2
0.2
0.2
0.2
0.2
0.2
0.2
0.2
0.2
0.2
0.2
0.2
0.2
0.2
0.2
0.2
0.2
0.2
0.2
0.2
0.2
0.2
0.2
0.2
0.2
0.2
0.2
0.2
0.2
0.2
0.2
0.574311
0.568324
0.558096
0.540757
0.513624
0.479817
0.465924
0.461918
0.200037
0.2
0.200004
0.200073
0.20044
0.200032
0.200006
0.2
0.2
0.2
0.2
0.2
0.2
0.2
0.2
0.2
0.2
0.2
0.2
0.2
0.2
0.2
0.2
0.2
0.2
0.200004
0.2
0.2
0.2
0.2
0.2
0.2
0.2
0.2
0.2
0.2
0.200001
0.204117
0.303388
0.318948
0.323726
0.318887
0.304613
0.278055
0.249807
0.201517
0.200008
0.2
0.2
0.2
0.2
0.2
0.2
0.2
0.2
0.2
0.2
0.2
0.2
0.2
0.2
0.2
0.2
0.2
0.2
0.2
0.2
0.2
0.2
0.2
0.2
0.2
0.2
0.2
0.2
0.2
0.2
0.2
0.2
0.2
0.2
0.2
0.2
0.2
0.2
0.2
0.2
0.2
0.2
0.2
0.2
0.2
0.2
0.2
0.2
0.2
0.2
0.2
0.2
0.2
0.2
0.2
0.2
0.2
0.2
0.2
0.2
0.2
0.2
0.2
0.2
0.2
0.2
0.2
0.2
0.2
0.2
0.2
0.2
0.2
0.2
0.2
0.2
0.2
0.2
0.2
0.2
0.2
0.2
0.2
0.2
0.2
0.2
0.2
0.2
0.2
0.2
0.2
0.2
0.2
0.2
0.2
0.571285
0.56568
0.556321
0.540849
0.517306
0.488581
0.472905
0.465473
0.461742
0.201825
0.2
0.200001
0.200005
0.2
0.2
0.2
0.2
0.2
0.2
0.2
0.2
0.2
0.2
0.2
0.2
0.2
0.2
0.2
0.2
0.2
0.2
0.2
0.2
0.200001
0.2
0.2
0.2
0.2
0.2
0.2
0.2
0.2
0.2
0.2
0.200006
0.205638
0.301348
0.312893
0.30708
0.294021
0.27826
0.257753
0.204748
0.20002
0.2
0.2
0.2
0.2
0.2
0.2
0.2
0.2
0.2
0.2
0.2
0.2
0.2
0.2
0.2
0.2
0.2
0.2
0.2
0.2
0.2
0.2
0.2
0.2
0.2
0.2
0.2
0.2
0.2
0.2
0.2
0.2
0.2
0.2
0.2
0.2
0.2
0.2
0.2
0.2
0.2
0.2
0.2
0.2
0.2
0.2
0.2
0.2
0.2
0.2
0.2
0.2
0.2
0.2
0.2
0.2
0.2
0.2
0.2
0.2
0.2
0.2
0.2
0.2
0.2
0.2
0.2
0.2
0.2
0.2
0.2
0.2
0.2
0.2
0.2
0.2
0.2
0.2
0.2
0.2
0.2
0.2
0.2
0.2
0.2
0.2
0.2
0.2
0.2
0.2
0.2
0.2
0.2
0.2
0.2
0.2
0.568206
0.562977
0.554455
0.540727
0.520361
0.495735
0.479353
0.469731
0.463979
0.459085
0.364844
0.208686
0.200006
0.2
0.2
0.2
0.2
0.2
0.2
0.2
0.2
0.2
0.2
0.2
0.2
0.2
0.2
0.2
0.2
0.2
0.2
0.2
0.2
0.2
0.2
0.2
0.2
0.2
0.2
0.2
0.2
0.2
0.2
0.2
0.200259
0.208135
0.297991
0.308773
0.301138
0.242807
0.224135
0.22985
0.200573
0.200002
0.2
0.2
0.2
0.2
0.2
0.2
0.2
0.2
0.2
0.2
0.2
0.2
0.2
0.2
0.2
0.2
0.2
0.2
0.2
0.2
0.2
0.2
0.2
0.2
0.2
0.2
0.2
0.2
0.2
0.2
0.2
0.2
0.2
0.2
0.2
0.2
0.2
0.2
0.2
0.2
0.2
0.2
0.2
0.2
0.2
0.2
0.2
0.2
0.2
0.2
0.2
0.2
0.2
0.2
0.2
0.2
0.2
0.2
0.2
0.2
0.2
0.2
0.2
0.2
0.2
0.2
0.2
0.2
0.2
0.2
0.2
0.2
0.2
0.2
0.2
0.2
0.2
0.2
0.2
0.2
0.2
0.2
0.2
0.2
0.2
0.2
0.2
0.2
0.2
0.2
0.2
0.2
0.2
0.2
0.2
0.2
0.56505
0.560172
0.552406
0.54021
0.52251
0.501171
0.484917
0.474034
0.466837
0.461348
0.455153
0.449163
0.440349
0.321763
0.209593
0.200046
0.2
0.2
0.2
0.2
0.2
0.2
0.2
0.2
0.2
0.2
0.2
0.2
0.2
0.2
0.2
0.2
0.2
0.2
0.2
0.2
0.2
0.2
0.2
0.2
0.2
0.2
0.2
0.2
0.200107
0.205937
0.293661
0.304548
0.297759
0.221522
0.205896
0.208527
0.200034
0.2
0.2
0.2
0.2
0.2
0.2
0.2
0.2
0.2
0.2
0.2
0.2
0.2
0.2
0.2
0.2
0.2
0.2
0.2
0.2
0.2
0.2
0.2
0.2
0.2
0.2
0.2
0.2
0.2
0.2
0.2
0.2
0.2
0.2
0.2
0.2
0.2
0.2
0.2
0.2
0.2
0.2
0.2
0.2
0.2
0.2
0.2
0.2
0.2
0.2
0.2
0.2
0.2
0.2
0.2
0.2
0.2
0.2
0.2
0.2
0.2
0.2
0.2
0.2
0.2
0.2
0.2
0.2
0.2
0.2
0.2
0.2
0.2
0.2
0.2
0.2
0.2
0.2
0.2
0.2
0.2
0.2
0.2
0.2
0.2
0.2
0.2
0.2
0.2
0.2
0.2
0.2
0.2
0.2
0.2
0.2
0.2
0.561809
0.557246
0.550138