/*--------------------------------*- C++ -*----------------------------------*\
| =========                 |                                                 |
| \\      /  F ield         | OpenFOAM: The Open Source CFD Toolbox           |
|  \\    /   O peration     | Version:  2.1.0                                 |
|   \\  /    A nd           | Web:      www.OpenFOAM.org                      |
|    \\/     M anipulation  |                                                 |
\*---------------------------------------------------------------------------*/
FoamFile
{
    version     2.0;
    format      ascii;
    class       volScalarField;
    location    "8030";
    object      kr_o;
}
// * * * * * * * * * * * * * * * * * * * * * * * * * * * * * * * * * * * * * //

dimensions      [0 0 0 0 0 0 0];

internalField   nonuniform List<scalar> 
15000
(
4.31515e-06
0.000288496
0.00183674
0.00498395
0.00934038
0.0145404
0.0203486
0.0266034
0.0331834
0.0399925
0.0469536
0.0540053
0.0611021
0.0682126
0.0753026
0.0823347
0.0892774
0.0961059
0.102804
0.109359
0.115768
0.122028
0.128144
0.13412
0.139966
0.145692
0.151309
0.15683
0.162268
0.167637
0.172954
0.178232
0.183488
0.18874
0.194006
0.199308
0.204668
0.210113
0.215675
0.221392
0.22731
0.233488
0.240002
0.246956
0.254489
0.262802
0.272201
0.283168
0.296504
0.313589
0.336877
0.370554
0.41959
0.480224
0.529239
0.552413
0.55986
0.561854
0.562348
0.562465
0.562492
0.562498
0.5625
0.5625
0.5625
0.5625
0.5625
0.5625
0.5625
0.5625
0.5625
0.5625
0.5625
0.5625
0.5625
0.5625
0.5625
0.5625
0.5625
0.5625
0.5625
0.5625
0.5625
0.5625
0.5625
0.5625
0.5625
0.5625
0.5625
0.5625
0.5625
0.5625
0.5625
0.5625
0.5625
0.5625
0.5625
0.5625
0.5625
0.5625
0.5625
0.5625
0.5625
0.5625
0.5625
0.5625
0.5625
0.5625
0.5625
0.5625
0.5625
0.5625
0.5625
0.5625
0.5625
0.5625
0.5625
0.5625
0.5625
0.5625
0.5625
0.5625
0.5625
0.5625
0.5625
0.5625
0.5625
0.5625
0.5625
0.5625
0.5625
0.5625
0.5625
0.5625
0.5625
0.5625
0.5625
0.5625
0.5625
0.5625
0.5625
0.5625
0.5625
0.5625
0.5625
0.5625
0.5625
0.5625
0.5625
0.5625
0.000286996
0.00133091
0.00368605
0.0072515
0.0117579
0.016985
0.0227672
0.0289743
0.0354998
0.0422553
0.0491678
0.0561789
0.0632461
0.0703371
0.0774124
0.0844332
0.0913674
0.0981908
0.104886
0.111441
0.117851
0.124115
0.130236
0.136219
0.142074
0.147809
0.153437
0.15897
0.164423
0.16981
0.175145
0.180444
0.185725
0.191005
0.196305
0.201645
0.207051
0.212551
0.218178
0.223973
0.229988
0.236286
0.242953
0.2501
0.257886
0.266537
0.276405
0.288051
0.30241
0.32111
0.347017
0.384732
0.438024
0.497414
0.538444
0.555531
0.560705
0.562064
0.562398
0.562477
0.562495
0.562499
0.5625
0.5625
0.5625
0.5625
0.5625
0.5625
0.5625
0.5625
0.5625
0.5625
0.5625
0.5625
0.5625
0.5625
0.5625
0.5625
0.5625
0.5625
0.5625
0.5625
0.5625
0.5625
0.5625
0.5625
0.5625
0.5625
0.5625
0.5625
0.5625
0.5625
0.5625
0.5625
0.5625
0.5625
0.5625
0.5625
0.5625
0.5625
0.5625
0.5625
0.5625
0.5625
0.5625
0.5625
0.5625
0.5625
0.5625
0.5625
0.5625
0.5625
0.5625
0.5625
0.5625
0.5625
0.5625
0.5625
0.5625
0.5625
0.5625
0.5625
0.5625
0.5625
0.5625
0.5625
0.5625
0.5625
0.5625
0.5625
0.5625
0.5625
0.5625
0.5625
0.5625
0.5625
0.5625
0.5625
0.5625
0.5625
0.5625
0.5625
0.5625
0.5625
0.5625
0.5625
0.5625
0.5625
0.5625
0.5625
0.00182065
0.00367024
0.00657294
0.0103932
0.0149782
0.0201927
0.0259184
0.03205
0.038495
0.0451729
0.0520156
0.0589692
0.0659936
0.0730514
0.0800988
0.087096
0.0940107
0.100818
0.107499
0.114043
0.120444
0.1267
0.132815
0.138794
0.144644
0.150376
0.156002
0.161534
0.166986
0.172374
0.177712
0.183018
0.188308
0.193602
0.198919
0.204282
0.209718
0.215258
0.220936
0.226798
0.232898
0.239306
0.246117
0.253455
0.261496
0.270502
0.28088
0.293289
0.308843
0.32949
0.358628
0.401168
0.458318
0.51386
0.546081
0.557945
0.561347
0.562222
0.562435
0.562485
0.562497
0.562499
0.5625
0.5625
0.5625
0.5625
0.5625
0.5625
0.5625
0.5625
0.5625
0.5625
0.5625
0.5625
0.5625
0.5625
0.5625
0.5625
0.5625
0.5625
0.5625
0.5625
0.5625
0.5625
0.5625
0.5625
0.5625
0.5625
0.5625
0.5625
0.5625
0.5625
0.5625
0.5625
0.5625
0.5625
0.5625
0.5625
0.5625
0.5625
0.5625
0.5625
0.5625
0.5625
0.5625
0.5625
0.5625
0.5625
0.5625
0.5625
0.5625
0.5625
0.5625
0.5625
0.5625
0.5625
0.5625
0.5625
0.5625
0.5625
0.5625
0.5625
0.5625
0.5625
0.5625
0.5625
0.5625
0.5625
0.5625
0.5625
0.5625
0.5625
0.5625
0.5625
0.5625
0.5625
0.5625
0.5625
0.5625
0.5625
0.5625
0.5625
0.5625
0.5625
0.5625
0.5625
0.5625
0.5625
0.5625
0.5625
0.00492445
0.00719297
0.0103515
0.0142822
0.0188812
0.0240512
0.0297
0.0357401
0.0420904
0.0486781
0.0554413
0.0623301
0.0693053
0.0763219
0.0833335
0.0902995
0.0971869
0.10397
0.11063
0.117155
0.123539
0.12978
0.13588
0.141844
0.14768
0.153399
0.15901
0.164529
0.169969
0.175345
0.180674
0.185972
0.191258
0.196551
0.201872
0.207247
0.212701
0.218268
0.223986
0.229904
0.236081
0.242595
0.249549
0.257084
0.265399
0.274799
0.285764
0.299081
0.316103
0.339214
0.372447
0.420552
0.479966
0.528491
0.55195
0.559684
0.5618
0.562333
0.562462
0.562491
0.562498
0.5625
0.5625
0.5625
0.5625
0.5625
0.5625
0.5625
0.5625
0.5625
0.5625
0.5625
0.5625
0.5625
0.5625
0.5625
0.5625
0.5625
0.5625
0.5625
0.5625
0.5625
0.5625
0.5625
0.5625
0.5625
0.5625
0.5625
0.5625
0.5625
0.5625
0.5625
0.5625
0.5625
0.5625
0.5625
0.5625
0.5625
0.5625
0.5625
0.5625
0.5625
0.5625
0.5625
0.5625
0.5625
0.5625
0.5625
0.5625
0.5625
0.5625
0.5625
0.5625
0.5625
0.5625
0.5625
0.5625
0.5625
0.5625
0.5625
0.5625
0.5625
0.5625
0.5625
0.5625
0.5625
0.5625
0.5625
0.5625
0.5625
0.5625
0.5625
0.5625
0.5625
0.5625
0.5625
0.5625
0.5625
0.5625
0.5625
0.5625
0.5625
0.5625
0.5625
0.5625
0.5625
0.5625
0.5625
0.5625
0.5625
0.00919677
0.0116184
0.0148587
0.0188056
0.02337
0.0284706
0.0340291
0.0399695
0.0462197
0.0527145
0.0593974
0.0662233
0.073148
0.0801205
0.087093
0.0940241
0.10088
0.107635
0.11427
0.120773
0.127136
0.133357
0.139436
0.14538
0.151195
0.156891
0.16248
0.167975
0.173392
0.178746
0.184053
0.189333
0.194603
0.199885
0.205201
0.210575
0.216038
0.221623
0.227374
0.233342
0.239593
0.246213
0.253318
0.261066
0.269691
0.279552
0.291225
0.305674
0.324583
0.350916
0.389363
0.443268
0.501664
0.540426
0.556136
0.560858
0.562099
0.562406
0.562479
0.562495
0.562499
0.5625
0.5625
0.5625
0.5625
0.5625
0.5625
0.5625
0.5625
0.5625
0.5625
0.5625
0.5625
0.5625
0.5625
0.5625
0.5625
0.5625
0.5625
0.5625
0.5625
0.5625
0.5625
0.5625
0.5625
0.5625
0.5625
0.5625
0.5625
0.5625
0.5625
0.5625
0.5625
0.5625
0.5625
0.5625
0.5625
0.5625
0.5625
0.5625
0.5625
0.5625
0.5625
0.5625
0.5625
0.5625
0.5625
0.5625
0.5625
0.5625
0.5625
0.5625
0.5625
0.5625
0.5625
0.5625
0.5625
0.5625
0.5625
0.5625
0.5625
0.5625
0.5625
0.5625
0.5625
0.5625
0.5625
0.5625
0.5625
0.5625
0.5625
0.5625
0.5625
0.5625
0.5625
0.5625
0.5625
0.5625
0.5625
0.5625
0.5625
0.5625
0.5625
0.5625
0.5625
0.5625
0.5625
0.5625
0.5625
0.5625
0.014262
0.0167167
0.0199508
0.0238589
0.0283575
0.0333729
0.0388346
0.0446742
0.0508272
0.0572343
0.0638456
0.0706163
0.0774935
0.0844236
0.0913579
0.0982548
0.105081
0.111809
0.11842
0.1249
0.131242
0.137441
0.143498
0.149418
0.155208
0.160877
0.166437
0.171901
0.177286
0.182609
0.187887
0.193139
0.198385
0.203648
0.208949
0.214316
0.219781
0.225379
0.231158
0.237174
0.243502
0.250236
0.257508
0.265501
0.274494
0.284919
0.297487
0.31341
0.334831
0.365472
0.410373
0.468899
0.521467
0.549271
0.558909
0.5616
0.562285
0.56245
0.562489
0.562498
0.562499
0.5625
0.5625
0.5625
0.5625
0.5625
0.5625
0.5625
0.5625
0.5625
0.5625
0.5625
0.5625
0.5625
0.5625
0.5625
0.5625
0.5625
0.5625
0.5625
0.5625
0.5625
0.5625
0.5625
0.5625
0.5625
0.5625
0.5625
0.5625
0.5625
0.5625
0.5625
0.5625
0.5625
0.5625
0.5625
0.5625
0.5625
0.5625
0.5625
0.5625
0.5625
0.5625
0.5625
0.5625
0.5625
0.5625
0.5625
0.5625
0.5625
0.5625
0.5625
0.5625
0.5625
0.5625
0.5625
0.5625
0.5625
0.5625
0.5625
0.5625
0.5625
0.5625
0.5625
0.5625
0.5625
0.5625
0.5625
0.5625
0.5625
0.5625
0.5625
0.5625
0.5625
0.5625
0.5625
0.5625
0.5625
0.5625
0.5625
0.5625
0.5625
0.5625
0.5625
0.5625
0.5625
0.5625
0.5625
0.5625
0.5625
0.0198768
0.0223147
0.0255026
0.0293445
0.0337622
0.0386869
0.0440533
0.0497989
0.0558653
0.0621995
0.0687559
0.0754813
0.0823183
0.0892122
0.0961143
0.102983
0.109785
0.116492
0.123084
0.129547
0.135872
0.142053
0.148092
0.15399
0.159755
0.165395
0.170921
0.176351
0.181699
0.186984
0.192226
0.197445
0.202662
0.207899
0.213181
0.218537
0.224
0.22961
0.235418
0.241486
0.247898
0.254762
0.262229
0.270519
0.279969
0.291118
0.304864
0.322779
0.347659
0.384094
0.436248
0.495605
0.537496
0.555201
0.560611
0.562039
0.562392
0.562475
0.562495
0.562499
0.5625
0.5625
0.5625
0.5625
0.5625
0.5625
0.5625
0.5625
0.5625
0.5625
0.5625
0.5625
0.5625
0.5625
0.5625
0.5625
0.5625
0.5625
0.5625
0.5625
0.5625
0.5625
0.5625
0.5625
0.5625
0.5625
0.5625
0.5625
0.5625
0.5625
0.5625
0.5625
0.5625
0.5625
0.5625
0.5625
0.5625
0.5625
0.5625
0.5625
0.5625
0.5625
0.5625
0.5625
0.5625
0.5625
0.5625
0.5625
0.5625
0.5625
0.5625
0.5625
0.5625
0.5625
0.5625
0.5625
0.5625
0.5625
0.5625
0.5625
0.5625
0.5625
0.5625
0.5625
0.5625
0.5625
0.5625
0.5625
0.5625
0.5625
0.5625
0.5625
0.5625
0.5625
0.5625
0.5625
0.5625
0.5625
0.5625
0.5625
0.5625
0.5625
0.5625
0.5625
0.5625
0.5625
0.5625
0.5625
0.5625
0.5625
0.0258731
0.0282758
0.0314038
0.0351717
0.0395077
0.0443469
0.0496288
0.0552962
0.0612963
0.0675823
0.0741017
0.0807952
0.087604
0.0944735
0.101355
0.108207
0.114996
0.121694
0.128279
0.134737
0.141056
0.147231
0.153259
0.159143
0.164887
0.1705
0.175996
0.181388
0.186697
0.191942
0.197144
0.202326
0.207511
0.212722
0.217986
0.223332
0.228796
0.234421
0.240263
0.246393
0.252906
0.259926
0.267636
0.276303
0.286351
0.298468
0.313835
0.334552
0.36431
0.408298
0.466602
0.520106
0.548819
0.558801
0.561579
0.562281
0.56245
0.562489
0.562498
0.562499
0.5625
0.5625
0.5625
0.5625
0.5625
0.5625
0.5625
0.5625
0.5625
0.5625
0.5625
0.5625
0.5625
0.5625
0.5625
0.5625
0.5625
0.5625
0.5625
0.5625
0.5625
0.5625
0.5625
0.5625
0.5625
0.5625
0.5625
0.5625
0.5625
0.5625
0.5625
0.5625
0.5625
0.5625
0.5625
0.5625
0.5625
0.5625
0.5625
0.5625
0.5625
0.5625
0.5625
0.5625
0.5625
0.5625
0.5625
0.5625
0.5625
0.5625
0.5625
0.5625
0.5625
0.5625
0.5625
0.5625
0.5625
0.5625
0.5625
0.5625
0.5625
0.5625
0.5625
0.5625
0.5625
0.5625
0.5625
0.5625
0.5625
0.5625
0.5625
0.5625
0.5625
0.5625
0.5625
0.5625
0.5625
0.5625
0.5625
0.5625
0.5625
0.5625
0.5625
0.5625
0.5625
0.5625
0.5625
0.5625
0.5625
0.5625
0.0321233
0.0344878
0.0375581
0.0412588
0.0455241
0.050294
0.0555125
0.0611281
0.0670938
0.0733575
0.0798601
0.0865401
0.0933387
0.100201
0.10708
0.113934
0.120729
0.127436
0.134034
0.140506
0.146839
0.153026
0.159062
0.164946
0.170682
0.176279
0.181749
0.187108
0.192378
0.197582
0.202745
0.207892
0.213049
0.218239
0.223491
0.228835
0.234308
0.23996
0.245851
0.252062
0.258702
0.265924
0.273952
0.283127
0.293995
0.307473
0.325171
0.349981
0.386651
0.439308
0.498488
0.5391
0.555783
0.560783
0.562086
0.562404
0.562478
0.562495
0.562499
0.5625
0.5625
0.5625
0.5625
0.5625
0.5625
0.5625
0.5625
0.5625
0.5625
0.5625
0.5625
0.5625
0.5625
0.5625
0.5625
0.5625
0.5625
0.5625
0.5625
0.5625
0.5625
0.5625
0.5625
0.5625
0.5625
0.5625
0.5625
0.5625
0.5625
0.5625
0.5625
0.5625
0.5625
0.5625
0.5625
0.5625
0.5625
0.5625
0.5625
0.5625
0.5625
0.5625
0.5625
0.5625
0.5625
0.5625
0.5625
0.5625
0.5625
0.5625
0.5625
0.5625
0.5625
0.5625
0.5625
0.5625
0.5625
0.5625
0.5625
0.5625
0.5625
0.5625
0.5625
0.5625
0.5625
0.5625
0.5625
0.5625
0.5625
0.5625
0.5625
0.5625
0.5625
0.5625
0.5625
0.5625
0.5625
0.5625
0.5625
0.5625
0.5625
0.5625
0.5625
0.5625
0.5625
0.5625
0.5625
0.5625
0.5625
0.5625
0.0385245
0.0408574
0.0438826
0.0475333
0.0517499
0.0564774
0.0616656
0.067268
0.0732332
0.0795023
0.0860134
0.0927049
0.099518
0.106399
0.1133
0.120182
0.12701
0.133755
0.140395
0.146911
0.153289
0.159518
0.165591
0.171504
0.177257
0.182856
0.188314
0.193649
0.198887
0.204056
0.209185
0.214305
0.219442
0.224625
0.229881
0.235242
0.240747
0.246448
0.252413
0.258739
0.265557
0.27306
0.281535
0.291431
0.303488
0.318984
0.340208
0.371161
0.417071
0.476058
0.526364
0.551294
0.559534
0.561771
0.562329
0.562461
0.562491
0.562498
0.5625
0.5625
0.5625
0.5625
0.5625
0.5625
0.5625
0.5625
0.5625
0.5625
0.5625
0.5625
0.5625
0.5625
0.5625
0.5625
0.5625
0.5625
0.5625
0.5625
0.5625
0.5625
0.5625
0.5625
0.5625
0.5625
0.5625
0.5625
0.5625
0.5625
0.5625
0.5625
0.5625
0.5625
0.5625
0.5625
0.5625
0.5625
0.5625
0.5625
0.5625
0.5625
0.5625
0.5625
0.5625
0.5625
0.5625
0.5625
0.5625
0.5625
0.5625
0.5625
0.5625
0.5625
0.5625
0.5625
0.5625
0.5625
0.5625
0.5625
0.5625
0.5625
0.5625
0.5625
0.5625
0.5625
0.5625
0.5625
0.5625
0.5625
0.5625
0.5625
0.5625
0.5625
0.5625
0.5625
0.5625
0.5625
0.5625
0.5625
0.5625
0.5625
0.5625
0.5625
0.5625
0.5625
0.5625
0.5625
0.5625
0.5625
0.5625
0.5625
0.044992
0.0473057
0.0503058
0.0539329
0.0581333
0.062858
0.068061
0.0736912
0.0796911
0.0859989
0.0925514
0.099287
0.106147
0.11308
0.120039
0.126984
0.133881
0.140705
0.147429
0.154036
0.160507
0.166829
0.172987
0.178975
0.184786
0.190424
0.195899
0.201231
0.20645
0.211594
0.216701
0.221809
0.226951
0.232155
0.23745
0.242866
0.248443
0.254236
0.260325
0.266827
0.273913
0.281836
0.290983
0.301978
0.315879
0.334558
0.361354
0.401353
0.456748
0.512459
0.54554
0.557808
0.56132
0.562218
0.562435
0.562486
0.562497
0.562499
0.5625
0.5625
0.5625
0.5625
0.5625
0.5625
0.5625
0.5625
0.5625
0.5625
0.5625
0.5625
0.5625
0.5625
0.5625
0.5625
0.5625
0.5625
0.5625
0.5625
0.5625
0.5625
0.5625
0.5625
0.5625
0.5625
0.5625
0.5625
0.5625
0.5625
0.5625
0.5625
0.5625
0.5625
0.5625
0.5625
0.5625
0.5625
0.5625
0.5625
0.5625
0.5625
0.5625
0.5625
0.5625
0.5625
0.5625
0.5625
0.5625
0.5625
0.5625
0.5625
0.5625
0.5625
0.5625
0.5625
0.5625
0.5625
0.5625
0.5625
0.5625
0.5625
0.5625
0.5625
0.5625
0.5625
0.5625
0.5625
0.5625
0.5625
0.5625
0.5625
0.5625
0.5625
0.5625
0.5625
0.5625
0.5625
0.5625
0.5625
0.5625
0.5625
0.5625
0.5625
0.5625
0.5625
0.5625
0.5625
0.5625
0.5625
0.5625
0.5625
0.0514543
0.0537663
0.056768
0.0604068
0.0646351
0.0694068
0.0746714
0.0803728
0.0864499
0.0928387
0.099475
0.106297
0.113247
0.120275
0.127336
0.134392
0.141412
0.14837
0.155241
0.162005
0.168643
0.175135
0.181463
0.187607
0.193555
0.199299
0.204843
0.210209
0.215435
0.220574
0.225681
0.230808
0.235996
0.241277
0.246676
0.252221
0.257947
0.263915
0.270224
0.277027
0.284557
0.293166
0.303413
0.316223
0.333206
0.357216
0.392842
0.443775
0.50056
0.539565
0.555802
0.56076
0.562075
0.5624
0.562477
0.562495
0.562499
0.5625
0.5625
0.5625
0.5625
0.5625
0.5625
0.5625
0.5625
0.5625
0.5625
0.5625
0.5625
0.5625
0.5625
0.5625
0.5625
0.5625
0.5625
0.5625
0.5625
0.5625
0.5625
0.5625
0.5625
0.5625
0.5625
0.5625
0.5625
0.5625
0.5625
0.5625
0.5625
0.5625
0.5625
0.5625
0.5625
0.5625
0.5625
0.5625
0.5625
0.5625
0.5625
0.5625
0.5625
0.5625
0.5625
0.5625
0.5625
0.5625
0.5625
0.5625
0.5625
0.5625
0.5625
0.5625
0.5625
0.5625
0.5625
0.5625
0.5625
0.5625
0.5625
0.5625
0.5625
0.5625
0.5625
0.5625
0.5625
0.5625
0.5625
0.5625
0.5625
0.5625
0.5625
0.5625
0.5625
0.5625
0.5625
0.5625
0.5625
0.5625
0.5625
0.5625
0.5625
0.5625
0.5625
0.5625
0.5625
0.5625
0.5625
0.5625
0.5625
0.5625
0.0578518
0.0601835
0.0632208
0.0669162
0.0712234
0.0760932
0.0814711
0.0872966
0.0935044
0.100028
0.106801
0.113764
0.120858
0.128037
0.135258
0.142489
0.149703
0.156874
0.163983
0.171008
0.17793
0.184723
0.19136
0.197809
0.204038
0.210018
0.215737
0.221211
0.226492
0.231659
0.236801
0.241999
0.247311
0.252774
0.25841
0.264232
0.270274
0.276605
0.283351
0.290725
0.299066
0.308914
0.321143
0.337233
0.359741
0.392716
0.439796
0.49438
0.535302
0.554055
0.560205
0.561919
0.56236
0.562468
0.562493
0.562498
0.5625
0.5625
0.5625
0.5625
0.5625
0.5625
0.5625
0.5625
0.5625
0.5625
0.5625
0.5625
0.5625
0.5625
0.5625
0.5625
0.5625
0.5625
0.5625
0.5625
0.5625
0.5625
0.5625
0.5625
0.5625
0.5625
0.5625
0.5625
0.5625
0.5625
0.5625
0.5625
0.5625
0.5625
0.5625
0.5625
0.5625
0.5625
0.5625
0.5625
0.5625
0.5625
0.5625
0.5625
0.5625
0.5625
0.5625
0.5625
0.5625
0.5625
0.5625
0.5625
0.5625
0.5625
0.5625
0.5625
0.5625
0.5625
0.5625
0.5625
0.5625
0.5625
0.5625
0.5625
0.5625
0.5625
0.5625
0.5625
0.5625
0.5625
0.5625
0.5625
0.5625
0.5625
0.5625
0.5625
0.5625
0.5625
0.5625
0.5625
0.5625
0.5625
0.5625
0.5625
0.5625
0.5625
0.5625
0.5625
0.5625
0.5625
0.5625
0.5625
0.5625
0.5625
0.064135
0.0665125
0.0696242
0.0734235
0.0778632
0.0828907
0.0884459
0.094462
0.100868
0.107594
0.114573
0.121742
0.129049
0.136449
0.143908
0.151401
0.158906
0.166407
0.173889
0.181339
0.188737
0.196058
0.203265
0.210368
0.21731
0.223769
0.229808
0.235504
0.240911
0.246149
0.251377
0.256733
0.262318
0.268188
0.274361
0.280832
0.287613
0.294778
0.302494
0.311077
0.321071
0.333386
0.34951
0.371844
0.40382
0.447786
0.49727
0.534958
0.553345
0.55985
0.561792
0.562321
0.562457
0.56249
0.562498
0.5625
0.5625
0.5625
0.5625
0.5625
0.5625
0.5625
0.5625
0.5625
0.5625
0.5625
0.5625
0.5625
0.5625
0.5625
0.5625
0.5625
0.5625
0.5625
0.5625
0.5625
0.5625
0.5625
0.5625
0.5625
0.5625
0.5625
0.5625
0.5625
0.5625
0.5625
0.5625
0.5625
0.5625
0.5625
0.5625
0.5625
0.5625
0.5625
0.5625
0.5625
0.5625
0.5625
0.5625
0.5625
0.5625
0.5625
0.5625
0.5625
0.5625
0.5625
0.5625
0.5625
0.5625
0.5625
0.5625
0.5625
0.5625
0.5625
0.5625
0.5625
0.5625
0.5625
0.5625
0.5625
0.5625
0.5625
0.5625
0.5625
0.5625
0.5625
0.5625
0.5625
0.5625
0.5625
0.5625
0.5625
0.5625
0.5625
0.5625
0.5625
0.5625
0.5625
0.5625
0.5625
0.5625
0.5625
0.5625
0.5625
0.5625
0.5625
0.5625
0.5625
0.5625
0.5625
0.0702594
0.0727085
0.0759342
0.0798903
0.0845269
0.0897863
0.0956
0.101892
0.108583
0.115598
0.122865
0.130324
0.137929
0.145643
0.153444
0.161316
0.169255
0.177259
0.185331
0.193477
0.201694
0.209969
0.218856
0.228225
0.237709
0.246765
0.253981
0.259463
0.264307
0.268883
0.27363
0.278857
0.284764
0.291447
0.298893
0.307014
0.315714
0.32501
0.335087
0.34639
0.359815
0.376926
0.399962
0.431237
0.470519
0.510496
0.539538
0.554224
0.559887
0.561745
0.562296
0.562448
0.562488
0.562497
0.562499
0.5625
0.5625
0.5625
0.5625
0.5625
0.5625
0.5625
0.5625
0.5625
0.5625
0.5625
0.5625
0.5625
0.5625
0.5625
0.5625
0.5625
0.5625
0.5625
0.5625
0.5625
0.5625
0.5625
0.5625
0.5625
0.5625
0.5625
0.5625
0.5625
0.5625
0.5625
0.5625
0.5625
0.5625
0.5625
0.5625
0.5625
0.5625
0.5625
0.5625
0.5625
0.5625
0.5625
0.5625
0.5625
0.5625
0.5625
0.5625
0.5625
0.5625
0.5625
0.5625
0.5625
0.5625
0.5625
0.5625
0.5625
0.5625
0.5625
0.5625
0.5625
0.5625
0.5625
0.5625
0.5625
0.5625
0.5625
0.5625
0.5625
0.5625
0.5625
0.5625
0.5625
0.5625
0.5625
0.5625
0.5625
0.5625
0.5625
0.5625
0.5625
0.5625
0.5625
0.5625
0.5625
0.5625
0.5625
0.5625
0.5625
0.5625
0.5625
0.5625
0.5625
0.5625
0.5625
0.0761759
0.0787239
0.0821094
0.0862859
0.0912007
0.0967879
0.102967
0.109646
0.116733
0.124144
0.131805
0.13966
0.147672
0.155822
0.164105
0.172529
0.181118
0.189904
0.198937
0.208274
0.217978
0.229157
0.241759
0.255902
0.271467
0.287329
0.30193
0.309027
0.313385
0.315957
0.31854
0.322293
0.328001
0.336056
0.346447
0.358723
0.372128
0.386124
0.400386
0.415092
0.431423
0.451556
0.476667
0.504693
0.52997
0.547323
0.55645
0.560357
0.561809
0.562295
0.562443
0.562486
0.562497
0.562499
0.5625
0.5625
0.5625
0.5625
0.5625
0.5625
0.5625
0.5625
0.5625
0.5625
0.5625
0.5625
0.5625
0.5625
0.5625
0.5625
0.5625
0.5625
0.5625
0.5625
0.5625
0.5625
0.5625
0.5625
0.5625
0.5625
0.5625
0.5625
0.5625
0.5625
0.5625
0.5625
0.5625
0.5625
0.5625
0.5625
0.5625
0.5625
0.5625
0.5625
0.5625
0.5625
0.5625
0.5625
0.5625
0.5625
0.5625
0.5625
0.5625
0.5625
0.5625
0.5625
0.5625
0.5625
0.5625
0.5625
0.5625
0.5625
0.5625
0.5625
0.5625
0.5625
0.5625
0.5625
0.5625
0.5625
0.5625
0.5625
0.5625
0.5625
0.5625
0.5625
0.5625
0.5625
0.5625
0.5625
0.5625
0.5625
0.5625
0.5625
0.5625
0.5625
0.5625
0.5625
0.5625
0.5625
0.5625
0.5625
0.5625
0.5625
0.5625
0.5625
0.5625
0.5625
0.5625
0.5625
0.0818658
0.0845586
0.0881649
0.0926333
0.097901
0.103885
0.110488
0.117779
0.125466
0.133412
0.141598
0.149983
0.15855
0.167303
0.176275
0.185519
0.195117
0.205183
0.215878
0.227423
0.241003
0.257991
0.278819
0.303546
0.332288
0.362104
0.394407
0.410929
0.417825
0.414731
0.409794
0.407016
0.409634
0.419387
0.43591
0.455789
0.473718
0.487688
0.497841
0.505654
0.513521
0.523986
0.536163
0.547099
0.554716
0.559013
0.561084
0.561974
0.562322
0.562445
0.562485
0.562496
0.562499
0.5625
0.5625
0.5625
0.5625
0.5625
0.5625
0.5625
0.5625
0.5625
0.5625
0.5625
0.5625
0.5625
0.5625
0.5625
0.5625
0.5625
0.5625
0.5625
0.5625
0.5625
0.5625
0.5625
0.5625
0.5625
0.5625
0.5625
0.5625
0.5625
0.5625
0.5625
0.5625
0.5625
0.5625
0.5625
0.5625
0.5625
0.5625
0.5625
0.5625
0.5625
0.5625
0.5625
0.5625
0.5625
0.5625
0.5625
0.5625
0.5625
0.5625
0.5625
0.5625
0.5625
0.5625
0.5625
0.5625
0.5625
0.5625
0.5625
0.5625
0.5625
0.5625
0.5625
0.5625
0.5625
0.5625
0.5625
0.5625
0.5625
0.5625
0.5625
0.5625
0.5625
0.5625
0.5625
0.5625
0.5625
0.5625
0.5625
0.5625
0.5625
0.5625
0.5625
0.5625
0.5625
0.5625
0.5625
0.5625
0.5625
0.5625
0.5625
0.5625
0.5625
0.5625
0.5625
0.5625
0.5625
0.0873009
0.0901999
0.0941151
0.0989907
0.10475
0.111287
0.118488
0.126368
0.134613
0.143335
0.152568
0.16167
0.170994
0.180605
0.190601
0.201131
0.212407
0.224746
0.238629
0.254819
0.277507
0.307766
0.345336
0.388196
0.437503
0.481404
0.52195
0.537711
0.534947
0.515622
0.501167
0.493438
0.495855
0.508878
0.527359
0.54279
0.54884
0.551258
0.552004
0.551958
0.55205
0.554008
0.556902
0.559363
0.560928
0.561771
0.562183
0.562373
0.562454
0.562485
0.562496
0.562499
0.5625
0.5625
0.5625
0.5625
0.5625
0.5625
0.5625
0.5625
0.5625
0.5625
0.5625
0.5625
0.5625
0.5625
0.5625
0.5625
0.5625
0.5625
0.5625
0.5625
0.5625
0.5625
0.5625
0.5625
0.5625
0.5625
0.5625
0.5625
0.5625
0.5625
0.5625
0.5625
0.5625
0.5625
0.5625
0.5625
0.5625
0.5625
0.5625
0.5625
0.5625
0.5625
0.5625
0.5625
0.5625
0.5625
0.5625
0.5625
0.5625
0.5625
0.5625
0.5625
0.5625
0.5625
0.5625
0.5625
0.5625
0.5625
0.5625
0.5625
0.5625
0.5625
0.5625
0.5625
0.5625
0.5625
0.5625
0.5625
0.5625
0.5625
0.5625
0.5625
0.5625
0.5625
0.5625
0.5625
0.5625
0.5625
0.5625
0.5625
0.5625
0.5625
0.5625
0.5625
0.5625
0.5625
0.5625
0.5625
0.5625
0.5625
0.5625
0.5625
0.5625
0.5625
0.5625
0.5625
0.5625
0.5625
0.0924574
0.0956368
0.0999727
0.105408
0.11185
0.119156
0.12718
0.135848
0.144872
0.154374
0.164287
0.175184
0.185733
0.196642
0.208282
0.221017
0.235396
0.252293
0.273198
0.3014
0.343854
0.400652
0.462667
0.511659
0.543223
0.553567
0.559262
0.56225
0.561146
0.540144
0.539963
0.538225
0.542233
0.550853
0.558374
0.561161
0.561871
0.56194
0.561793
0.56142
0.560765
0.560893
0.56145
0.561926
0.56221
0.562357
0.562431
0.562469
0.562488
0.562496
0.562499
0.5625
0.5625
0.5625
0.5625
0.5625
0.5625
0.5625
0.5625
0.5625
0.5625
0.5625
0.5625
0.5625
0.5625
0.5625
0.5625
0.5625
0.5625
0.5625
0.5625
0.5625
0.5625
0.5625
0.5625
0.5625
0.5625
0.5625
0.5625
0.5625
0.5625
0.5625
0.5625
0.5625
0.5625
0.5625
0.5625
0.5625
0.5625
0.5625
0.5625
0.5625
0.5625
0.5625
0.5625
0.5625
0.5625
0.5625
0.5625
0.5625
0.5625
0.5625
0.5625
0.5625
0.5625
0.5625
0.5625
0.5625
0.5625
0.5625
0.5625
0.5625
0.5625
0.5625
0.5625
0.5625
0.5625
0.5625
0.5625
0.5625
0.5625
0.5625
0.5625
0.5625
0.5625
0.5625
0.5625
0.5625
0.5625
0.5625
0.5625
0.5625
0.5625
0.5625
0.5625
0.5625
0.5625
0.5625
0.5625
0.5625
0.5625
0.5625
0.5625
0.5625
0.5625
0.5625
0.5625
0.5625
0.5625
0.5625
0.0973219
0.100872
0.105774
0.111984
0.119385
0.127777
0.136933
0.14668
0.156784
0.167346
0.178341
0.190355
0.20368
0.217183
0.231798
0.248815
0.269715
0.297099
0.335893
0.396777
0.469486
0.525641
0.551015
0.558162
0.561266
0.562479
0.5625
0.5625
0.562496
0.562394
0.560999
0.553986
0.557012
0.560484
0.562025
0.562379
0.562496
0.5625
0.562496
0.562454
0.562032
0.562142
0.562303
0.562403
0.562452
0.562475
0.562486
0.562492
0.562497
0.562499
0.5625
0.5625
0.5625
0.5625
0.5625
0.5625
0.5625
0.5625
0.5625
0.5625
0.5625
0.5625
0.5625
0.5625
0.5625
0.5625
0.5625
0.5625
0.5625
0.5625
0.5625
0.5625
0.5625
0.5625
0.5625
0.5625
0.5625
0.5625
0.5625
0.5625
0.5625
0.5625
0.5625
0.5625
0.5625
0.5625
0.5625
0.5625
0.5625
0.5625
0.5625
0.5625
0.5625
0.5625
0.5625
0.5625
0.5625
0.5625
0.5625
0.5625
0.5625
0.5625
0.5625
0.5625
0.5625
0.5625
0.5625
0.5625
0.5625
0.5625
0.5625
0.5625
0.5625
0.5625
0.5625
0.5625
0.5625
0.5625
0.5625
0.5625
0.5625
0.5625
0.5625
0.5625
0.5625
0.5625
0.5625
0.5625
0.5625
0.5625
0.5625
0.5625
0.5625
0.5625
0.5625
0.5625
0.5625
0.5625
0.5625
0.5625
0.5625
0.5625
0.5625
0.5625
0.5625
0.5625
0.5625
0.5625
0.5625
0.5625
0.101892
0.105919
0.111584
0.118884
0.12768
0.137657
0.148425
0.159708
0.171347
0.183457
0.196169
0.210113
0.225889
0.245792
0.266795
0.293124
0.329202
0.381551
0.453915
0.522569
0.551542
0.560101
0.561922
0.562485
0.5625
0.5625
0.5625
0.5625
0.5625
0.5625
0.562499
0.562228
0.561495
0.562241
0.56247
0.5625
0.5625
0.5625
0.5625
0.5625
0.562488
0.56243
0.56247
0.562488
0.562494
0.562497
0.562498
0.562498
0.562499
0.5625
0.5625
0.5625
0.5625
0.5625
0.5625
0.5625
0.5625
0.5625
0.5625
0.5625
0.5625
0.5625
0.5625
0.5625
0.5625
0.5625
0.5625
0.5625
0.5625
0.5625
0.5625
0.5625
0.5625
0.5625
0.5625
0.5625
0.5625
0.5625
0.5625
0.5625
0.5625
0.5625
0.5625
0.5625
0.5625
0.5625
0.5625
0.5625
0.5625
0.5625
0.5625
0.5625
0.5625
0.5625
0.5625
0.5625
0.5625
0.5625
0.5625
0.5625
0.5625
0.5625
0.5625
0.5625
0.5625
0.5625
0.5625
0.5625
0.5625
0.5625
0.5625
0.5625
0.5625
0.5625
0.5625
0.5625
0.5625
0.5625
0.5625
0.5625
0.5625
0.5625
0.5625
0.5625
0.5625
0.5625
0.5625
0.5625
0.5625
0.5625
0.5625
0.5625
0.5625
0.5625
0.5625
0.5625
0.5625
0.5625
0.5625
0.5625
0.5625
0.5625
0.5625
0.5625
0.5625
0.5625
0.5625
0.5625
0.5625
0.5625
0.10617
0.110796
0.117492
0.126384
0.137331
0.149791
0.163017
0.176653
0.190662
0.205289
0.22096
0.238591
0.259577
0.287686
0.326027
0.372261
0.434874
0.503458
0.548846
0.560082
0.561994
0.562422
0.5625
0.5625
0.5625
0.5625
0.5625
0.5625
0.5625
0.5625
0.5625
0.562499
0.562484
0.562475
0.5625
0.5625
0.5625
0.5625
0.5625
0.5625
0.5625
0.562497
0.5625
0.5625
0.5625
0.5625
0.5625
0.562499
0.5625
0.5625
0.5625
0.5625
0.5625
0.5625
0.5625
0.5625
0.5625
0.5625
0.5625
0.5625
0.5625
0.5625
0.5625
0.5625
0.5625
0.5625
0.5625
0.5625
0.5625
0.5625
0.5625
0.5625
0.5625
0.5625
0.5625
0.5625
0.5625
0.5625
0.5625
0.5625
0.5625
0.5625
0.5625
0.5625
0.5625
0.5625
0.5625
0.5625
0.5625
0.5625
0.5625
0.5625
0.5625
0.5625
0.5625
0.5625
0.5625
0.5625
0.5625
0.5625
0.5625
0.5625
0.5625
0.5625
0.5625
0.5625
0.5625
0.5625
0.5625
0.5625
0.5625
0.5625
0.5625
0.5625
0.5625
0.5625
0.5625
0.5625
0.5625
0.5625
0.5625
0.5625
0.5625
0.5625
0.5625
0.5625
0.5625
0.5625
0.5625
0.5625
0.5625
0.5625
0.5625
0.5625
0.5625
0.5625
0.5625
0.5625
0.5625
0.5625
0.5625
0.5625
0.5625
0.5625
0.5625
0.5625
0.5625
0.5625
0.5625
0.5625
0.110161
0.115498
0.123584
0.134922
0.149526
0.166403
0.183845
0.201512
0.219595
0.238688
0.259795
0.284578
0.315902
0.360001
0.4236
0.486195
0.534507
0.557169
0.561954
0.562439
0.562499
0.5625
0.5625
0.5625
0.5625
0.5625
0.5625
0.5625
0.5625
0.5625
0.5625
0.5625
0.5625
0.562498
0.5625
0.5625
0.5625
0.5625
0.5625
0.5625
0.5625
0.5625
0.5625
0.5625
0.5625
0.5625
0.5625
0.5625
0.5625
0.5625
0.5625
0.5625
0.5625
0.5625
0.5625
0.5625
0.5625
0.5625
0.5625
0.5625
0.5625
0.5625
0.5625
0.5625
0.5625
0.5625
0.5625
0.5625
0.5625
0.5625
0.5625
0.5625
0.5625
0.5625
0.5625
0.5625
0.5625
0.5625
0.5625
0.5625
0.5625
0.5625
0.5625
0.5625
0.5625
0.5625
0.5625
0.5625
0.5625
0.5625
0.5625
0.5625
0.5625
0.5625
0.5625
0.5625
0.5625
0.5625
0.5625
0.5625
0.5625
0.5625
0.5625
0.5625
0.5625
0.5625
0.5625
0.5625
0.5625
0.5625
0.5625
0.5625
0.5625
0.5625
0.5625
0.5625
0.5625
0.5625
0.5625
0.5625
0.5625
0.5625
0.5625
0.5625
0.5625
0.5625
0.5625
0.5625
0.5625
0.5625
0.5625
0.5625
0.5625
0.5625
0.5625
0.5625
0.5625
0.5625
0.5625
0.5625
0.5625
0.5625
0.5625
0.5625
0.5625
0.5625
0.5625
0.5625
0.5625
0.5625
0.113855
0.119944
0.129822
0.145082
0.166767
0.193186
0.219109
0.244498
0.269616
0.296036
0.32592
0.362039
0.408418
0.467604
0.522065
0.550651
0.560413
0.562373
0.562494
0.5625
0.5625
0.5625
0.5625
0.5625
0.5625
0.5625
0.5625
0.5625
0.5625
0.5625
0.5625
0.5625
0.5625
0.5625
0.5625
0.5625
0.5625
0.5625
0.5625
0.5625
0.5625
0.5625
0.5625
0.5625
0.5625
0.5625
0.5625
0.5625
0.5625
0.5625
0.5625
0.5625
0.5625
0.5625
0.5625
0.5625
0.5625
0.5625
0.5625
0.5625
0.5625
0.5625
0.5625
0.5625
0.5625
0.5625
0.5625
0.5625
0.5625
0.5625
0.5625
0.5625
0.5625
0.5625
0.5625
0.5625
0.5625
0.5625
0.5625
0.5625
0.5625
0.5625
0.5625
0.5625
0.5625
0.5625
0.5625
0.5625
0.5625
0.5625
0.5625
0.5625
0.5625
0.5625
0.5625
0.5625
0.5625
0.5625
0.5625
0.5625
0.5625
0.5625
0.5625
0.5625
0.5625
0.5625
0.5625
0.5625
0.5625
0.5625
0.5625
0.5625
0.5625
0.5625
0.5625
0.5625
0.5625
0.5625
0.5625
0.5625
0.5625
0.5625
0.5625
0.5625
0.5625
0.5625
0.5625
0.5625
0.5625
0.5625
0.5625
0.5625
0.5625
0.5625
0.5625
0.5625
0.5625
0.5625
0.5625
0.5625
0.5625
0.5625
0.5625
0.5625
0.5625
0.5625
0.5625
0.5625
0.5625
0.5625
0.117227
0.123885
0.135582
0.156808
0.195271
0.255247
0.314428
0.374338
0.368734
0.397407
0.432582
0.47237
0.512344
0.543535
0.557611
0.561637
0.562438
0.5625
0.5625
0.5625
0.5625
0.5625
0.5625
0.5625
0.5625
0.5625
0.5625
0.5625
0.5625
0.5625
0.5625
0.5625
0.5625
0.5625
0.5625
0.5625
0.5625
0.5625
0.5625
0.5625
0.5625
0.5625
0.5625
0.5625
0.5625
0.5625
0.5625
0.5625
0.5625
0.5625
0.5625
0.5625
0.5625
0.5625
0.5625
0.5625
0.5625
0.5625
0.5625
0.5625
0.5625
0.5625
0.5625
0.5625
0.5625
0.5625
0.5625
0.5625
0.5625
0.5625
0.5625
0.5625
0.5625
0.5625
0.5625
0.5625
0.5625
0.5625
0.5625
0.5625
0.5625
0.5625
0.5625
0.5625
0.5625
0.5625
0.5625
0.5625
0.5625
0.5625
0.5625
0.5625
0.5625
0.5625
0.5625
0.5625
0.5625
0.5625
0.5625
0.5625
0.5625
0.5625
0.5625
0.5625
0.5625
0.5625
0.5625
0.5625
0.5625
0.5625
0.5625
0.5625
0.5625
0.5625
0.5625
0.5625
0.5625
0.5625
0.5625
0.5625
0.5625
0.5625
0.5625
0.5625
0.5625
0.5625
0.5625
0.5625
0.5625
0.5625
0.5625
0.5625
0.5625
0.5625
0.5625
0.5625
0.5625
0.5625
0.5625
0.5625
0.5625
0.5625
0.5625
0.5625
0.5625
0.5625
0.5625
0.5625
0.5625
0.5625
0.120277
0.127
0.138922
0.160774
0.199762
0.258652
0.470726
0.553113
0.542536
0.526342
0.537479
0.549997
0.55641
0.561035
0.56223
0.562461
0.5625
0.5625
0.5625
0.5625
0.5625
0.5625
0.5625
0.5625
0.5625
0.5625
0.5625
0.5625
0.5625
0.5625
0.5625
0.5625
0.5625