/*--------------------------------*- C++ -*----------------------------------*\
| =========                 |                                                 |
| \\      /  F ield         | OpenFOAM: The Open Source CFD Toolbox           |
|  \\    /   O peration     | Version:  2.1.0                                 |
|   \\  /    A nd           | Web:      www.OpenFOAM.org                      |
|    \\/     M anipulation  |                                                 |
\*---------------------------------------------------------------------------*/
FoamFile
{
    version     2.0;
    format      ascii;
    class       volScalarField;
    location    "8030";
    object      kr_w;
}
// * * * * * * * * * * * * * * * * * * * * * * * * * * * * * * * * * * * * * //

dimensions      [0 0 0 0 0 0 0];

internalField   nonuniform List<scalar> 
15000
(
0.562429
0.557847
0.534977
0.49685
0.456096
0.418473
0.385144
0.355873
0.330132
0.307392
0.2872
0.269174
0.25299
0.238372
0.225093
0.212984
0.20191
0.191756
0.182422
0.173821
0.165874
0.158511
0.15167
0.145293
0.139331
0.133738
0.128475
0.123504
0.118794
0.114316
0.110042
0.10595
0.102017
0.0982244
0.0945524
0.0909835
0.0875004
0.0840861
0.0807231
0.0773928
0.0740753
0.0707481
0.0673846
0.0639527
0.0604119
0.0567076
0.0527613
0.0484585
0.043631
0.0380353
0.0313508
0.0233172
0.0143668
0.00662173
0.00226207
0.000636278
0.000162644
3.95336e-05
9.27974e-06
2.11524e-06
4.69537e-07
1.01707e-07
2.1535e-08
4.4639e-09
9.07041e-10
1.80873e-10
3.54295e-11
6.82249e-12
1.29244e-12
2.41071e-13
4.43348e-14
8.08397e-15
1.4701e-15
2.47663e-16
3.17516e-18
0
0
0
0
0
0
0
0
0
0
0
0
0
0
0
0
0
0
0
0
0
0
0
0
0
0
0
0
0
0
0
0
0
0
0
0
0
0
0
0
0
0
0
0
0
0
0
0
0
0
0
0
0
0
0
0
0
0
0
0
0
0
0
0
0
0
0
0
0
0
0
0
0
0
0
0.557871
0.542088
0.511446
0.474285
0.437446
0.403551
0.373154
0.346092
0.32201
0.300529
0.281304
0.264028
0.248429
0.234269
0.221358
0.209551
0.198729
0.188787
0.179635
0.171191
0.163382
0.156139
0.149404
0.143122
0.137245
0.131729
0.126535
0.121629
0.116976
0.112551
0.108326
0.104278
0.100386
0.0966291
0.0929896
0.0894493
0.0859911
0.0825972
0.0792497
0.0759296
0.0726161
0.0692851
0.0659087
0.0624526
0.0588733
0.0551097
0.0510747
0.0466414
0.041625
0.0357641
0.0287436
0.0204285
0.0116785
0.00493144
0.00158726
0.00043528
0.000110268
2.66909e-05
6.24587e-06
1.41961e-06
3.14232e-07
6.78781e-08
1.4334e-08
2.96369e-09
6.00763e-10
1.19529e-10
2.33647e-11
4.49061e-12
8.49207e-13
1.58142e-13
2.90496e-14
5.29617e-15
9.46199e-16
1.30182e-16
0
0
0
0
0
0
0
0
0
0
0
0
0
0
0
0
0
0
0
0
0
0
0
0
0
0
0
0
0
0
0
0
0
0
0
0
0
0
0
0
0
0
0
0
0
0
0
0
0
0
0
0
0
0
0
0
0
0
0
0
0
0
0
0
0
0
0
0
0
0
0
0
0
0
0
0
0.535198
0.511633
0.480694
0.447692
0.415691
0.38595
0.35882
0.334268
0.312111
0.292115
0.274045
0.257671
0.242781
0.229184
0.216731
0.205303
0.194799
0.185129
0.176211
0.167971
0.160339
0.153255
0.146661
0.140506
0.134744
0.129334
0.124237
0.119419
0.11485
0.1105
0.106346
0.102363
0.0985312
0.09483
0.0912414
0.0877471
0.0843296
0.0809711
0.0776536
0.0743572
0.07106
0.0677369
0.0643582
0.0608873
0.0572761
0.0534565
0.0493306
0.0447561
0.0395273
0.0333617
0.0259625
0.0173981
0.00907167
0.00348308
0.00105684
0.000282346
7.06932e-05
1.69875e-05
3.95119e-06
8.92998e-07
1.96605e-07
4.22523e-08
8.87951e-09
1.82764e-09
3.68926e-10
7.31198e-11
1.42425e-11
2.72857e-12
5.14535e-13
9.56073e-14
1.75523e-14
3.21009e-15
5.68354e-16
5.08026e-17
0
0
0
0
0
0
0
0
0
0
0
0
0
0
0
0
0
0
0
0
0
0
0
0
0
0
0
0
0
0
0
0
0
0
0
0
0
0
0
0
0
0
0
0
0
0
0
0
0
0
0
0
0
0
0
0
0
0
0
0
0
0
0
0
0
0
0
0
0
0
0
0
0
0
0
0
0.49749
0.474827
0.448017
0.420137
0.392904
0.367151
0.343219
0.321192
0.301019
0.282588
0.265754
0.25036
0.236248
0.223277
0.21134
0.200346
0.190209
0.180855
0.172211
0.16421
0.15679
0.149895
0.143471
0.13747
0.13185
0.12657
0.121594
0.116888
0.112422
0.10817
0.104105
0.100207
0.0964526
0.0928238
0.0893016
0.0858681
0.0825059
0.079197
0.0759225
0.0726616
0.0693917
0.0660862
0.0627132
0.0592333
0.0555923
0.0517133
0.0474852
0.0427462
0.0372637
0.0307345
0.0229158
0.0142183
0.00664856
0.0023187
0.000666455
0.000173602
4.28661e-05
1.01955e-05
2.35013e-06
5.26705e-07
1.15047e-07
2.45415e-08
5.12189e-09
1.04748e-09
2.10205e-10
4.14394e-11
8.03275e-12
1.53224e-12
2.87844e-13
5.33142e-14
9.7668e-15
1.78762e-15
2.98465e-16
3.17516e-18
0
0
0
0
0
0
0
0
0
0
0
0
0
0
0
0
0
0
0
0
0
0
0
0
0
0
0
0
0
0
0
0
0
0
0
0
0
0
0
0
0
0
0
0
0
0
0
0
0
0
0
0
0
0
0
0
0
0
0
0
0
0
0
0
0
0
0
0
0
0
0
0
0
0
0
0
0.45728
0.438462
0.416446
0.393314
0.370306
0.348119
0.327116
0.307464
0.289207
0.272316
0.25672
0.242319
0.229006
0.216694
0.205308
0.194779
0.185043
0.176035
0.167693
0.159958
0.152774
0.146092
0.139861
0.134037
0.12858
0.12345
0.118614
0.11404
0.109697
0.105559
0.101603
0.0978044
0.0941442
0.0906026
0.087161
0.083802
0.0805081
0.0772606
0.07404
0.0708252
0.0675918
0.0643115
0.0609503
0.0574641
0.053791
0.0498427
0.0454912
0.0405493
0.0347526
0.0277862
0.0195415
0.0109712
0.00454214
0.00144708
0.000396701
0.000100866
2.45154e-05
5.75576e-06
1.31123e-06
2.90664e-07
6.28403e-08
1.32772e-08
2.74653e-09
5.57153e-10
1.10986e-10
2.17348e-11
4.18826e-12
7.94772e-13
1.48642e-13
2.74493e-14
5.03581e-15
9.14447e-16
1.30182e-16
0
0
0
0
0
0
0
0
0
0
0
0
0
0
0
0
0
0
0
0
0
0
0
0
0
0
0
0
0
0
0
0
0
0
0
0
0
0
0
0
0
0
0
0
0
0
0
0
0
0
0
0
0
0
0
0
0
0
0
0
0
0
0
0
0
0
0
0
0
0
0
0
0
0
0
0
0
0.420268
0.40512
0.387209
0.368035
0.348577
0.329451
0.311028
0.293521
0.277032
0.261591
0.247178
0.233738
0.221216
0.209566
0.198743
0.188697
0.179378
0.170732
0.162709
0.155257
0.148328
0.141875
0.135853
0.130223
0.124944
0.119982
0.115303
0.110876
0.106672
0.102665
0.0988315
0.0951484
0.0915955
0.088154
0.0848059
0.0815334
0.0783187
0.0751432
0.0719867
0.0688267
0.0656374
0.0623885
0.0590426
0.0555488
0.0518356
0.0478001
0.0432917
0.0380908
0.0318981
0.0244193
0.0158378
0.00784424
0.00286385
0.000842865
0.000221925
5.51243e-05
1.3165e-05
3.04381e-06
6.83654e-07
1.49552e-07
3.19346e-08
6.67027e-09
1.36535e-09
2.74329e-10
5.41784e-11
1.05292e-11
2.0154e-12
3.8028e-13
7.0803e-14
1.3034e-14
2.38137e-15
4.15946e-16
9.52549e-18
0
0
0
0
0
0
0
0
0
0
0
0
0
0
0
0
0
0
0
0
0
0
0
0
0
0
0
0
0
0
0
0
0
0
0
0
0
0
0
0
0
0
0
0
0
0
0
0
0
0
0
0
0
0
0
0
0
0
0
0
0
0
0
0
0
0
0
0
0
0
0
0
0
0
0
0
0
0.387596
0.375327
0.360636
0.34462
0.328061
0.311498
0.295289
0.279665
0.264759
0.250638
0.237312
0.224773
0.213012
0.20201
0.191744
0.18218
0.17328
0.165003
0.157306
0.150146
0.143479
0.137265
0.131463
0.126036
0.120948
0.116166
0.111657
0.107391
0.10334
0.0994774
0.0957792
0.0922233
0.0887897
0.0854599
0.0822159
0.0790401
0.0759146
0.0728203
0.0697362
0.0666387
0.0635
0.0602868
0.0569566
0.0534494
0.0496812
0.0455295
0.0408141
0.0352749
0.0285842
0.0205528
0.0119235
0.00510054
0.00165495
0.000456315
0.00011608
2.81787e-05
6.6027e-06
1.50032e-06
3.31561e-07
7.14371e-08
1.504e-08
3.10067e-09
6.27152e-10
1.24661e-10
2.43861e-11
4.69997e-12
8.93259e-13
1.67572e-13
3.10753e-14
5.72482e-15
1.05415e-15
1.68284e-16
3.17516e-18
0
0
0
0
0
0
0
0
0
0
0
0
0
0
0
0
0
0
0
0
0
0
0
0
0
0
0
0
0
0
0
0
0
0
0
0
0
0
0
0
0
0
0
0
0
0
0
0
0
0
0
0
0
0
0
0
0
0
0
0
0
0
0
0
0
0
0
0
0
0
0
0
0
0
0
0
0
0.359016
0.34891
0.336678
0.323134
0.308904
0.29445
0.280105
0.266096
0.252571
0.239611
0.227262
0.215554
0.204506
0.194122
0.184392
0.175297
0.166808
0.158895
0.151522
0.144652
0.138248
0.132275
0.126696
0.121479
0.116589
0.111995
0.107666
0.103571
0.099684
0.0959768
0.0924251
0.089007
0.0857025
0.0824932
0.0793616
0.0762907
0.0732624
0.0702571
0.0672529
0.0642243
0.0611411
0.0579657
0.0546472
0.051115
0.0472674
0.0429553
0.0379592
0.0319733
0.0246765
0.0161813
0.00810346
0.00297246
0.000872917
0.000228629
5.64406e-05
1.33918e-05
3.07504e-06
6.85683e-07
1.48864e-07
3.15432e-08
6.53852e-09
1.32881e-09
2.65295e-10
5.21246e-11
1.00934e-11
1.92848e-12
3.63867e-13
6.78596e-14
1.25292e-14
2.30834e-15
4.12771e-16
9.52549e-18
0
0
0
0
0
0
0
0
0
0
0
0
0
0
0
0
0
0
0
0
0
0
0
0
0
0
0
0
0
0
0
0
0
0
0
0
0
0
0
0
0
0
0
0
0
0
0
0
0
0
0
0
0
0
0
0
0
0
0
0
0
0
0
0
0
0
0
0
0
0
0
0
0
0
0
0
0
0
0.333997
0.325505
0.315139
0.303513
0.291133
0.278391
0.265587
0.252934
0.240579
0.228621
0.217136
0.20618
0.195788
0.185979
0.176754
0.168104
0.160009
0.152444
0.145383
0.138794
0.132646
0.126908
0.121549
0.116539
0.111849
0.107447
0.103303
0.0993888
0.0956741
0.0921314
0.0887356
0.0854639
0.0822959
0.079214
0.0762014
0.0732414
0.0703162
0.067406
0.0644874
0.061533
0.0585086
0.0553692
0.0520531
0.0484741
0.044507
0.0399666
0.0345834
0.0280135
0.0200577
0.011503
0.00483206
0.00154068
0.000419202
0.0001055
2.53561e-05
5.88208e-06
1.32277e-06
2.89182e-07
6.16148e-08
1.28263e-08
2.61503e-09
5.23387e-10
1.03057e-10
2.0002e-11
3.83261e-12
7.25931e-13
1.36088e-13
2.52838e-14
4.66749e-15
8.54119e-16
1.30182e-16
0
0
0
0
0
0
0
0
0
0
0
0
0
0
0
0
0
0
0
0
0
0
0
0
0
0
0
0
0
0
0
0
0
0
0
0
0
0
0
0
0
0
0
0
0
0
0
0
0
0
0
0
0
0
0
0
0
0
0
0
0
0
0
0
0
0
0
0
0
0
0
0
0
0
0
0
0
0
0
0.312016
0.304732
0.295779
0.285634
0.274708
0.263335
0.251777
0.240233
0.22885
0.217746
0.207016
0.196728
0.186928
0.177643
0.168883
0.160644
0.152914
0.145675
0.138904
0.132578
0.126669
0.121153
0.116003
0.111192
0.106695
0.102483
0.0985273
0.0947973
0.0912621
0.087892
0.0846594
0.0815403
0.0785144
0.0755642
0.0726737
0.0698279
0.0670095
0.0641981
0.0613694
0.0584923
0.0555251
0.0524128
0.0490795
0.0454172
0.0412671
0.0363947
0.0304751
0.0231878
0.0147601
0.00706091
0.00248117
0.00070939
0.000182898
4.46205e-05
1.04699e-05
2.37653e-06
5.23455e-07
1.12168e-07
2.34431e-08
4.79117e-09
9.60026e-10
1.89079e-10
3.66918e-11
7.03071e-12
1.3327e-12
2.50273e-13
4.6659e-14
8.67772e-15
1.60663e-15
2.69889e-16
3.17516e-18
0
0
0
0
0
0
0
0
0
0
0
0
0
0
0
0
0
0
0
0
0
0
0
0
0
0
0
0
0
0
0
0
0
0
0
0
0
0
0
0
0
0
0
0
0
0
0
0
0
0
0
0
0
0
0
0
0
0
0
0
0
0
0
0
0
0
0
0
0
0
0
0
0
0
0
0
0
0
0
0.292624
0.286247
0.278361
0.269348
0.259547
0.249244
0.238669
0.22801
0.217424
0.207039
0.196956
0.18725
0.177973
0.169155
0.160811
0.152942
0.145542
0.138596
0.132087
0.125995
0.120299
0.11498
0.110015
0.105385
0.101067
0.0970361
0.0932639
0.0897197
0.0863694
0.0831787
0.0801159
0.0771546
0.0742727
0.0714542
0.068685
0.0659517
0.0632394
0.0605279
0.05779
0.0549874
0.0520689
0.0489647
0.045578
0.0417691
0.0373319
0.0319717
0.0253395
0.0173658
0.00926119
0.00360051
0.00109355
0.000290971
7.23914e-05
1.72418e-05
3.96186e-06
8.81321e-07
1.90285e-07
3.99773e-08
8.19438e-09
1.64332e-09
3.23354e-10
6.26078e-11
1.19617e-11
2.26101e-12
4.23824e-13
7.89727e-14
1.46724e-14
2.72747e-15
4.9215e-16
3.49268e-17
0
0
0
0
0
0
0
0
0
0
0
0
0
0
0
0
0
0
0
0
0
0
0
0
0
0
0
0
0
0
0
0
0
0
0
0
0
0
0
0
0
0
0
0
0
0
0
0
0
0
0
0
0
0
0
0
0
0
0
0
0
0
0
0
0
0
0
0
0
0
0
0
0
0
0
0
0
0
0
0
0.275448
0.269751
0.262663
0.2545
0.245547
0.236052
0.226229
0.216266
0.206323
0.196529
0.186988
0.177777
0.168948
0.160535
0.152555
0.14501
0.137896
0.131202
0.124914
0.119017
0.113495
0.108333
0.103516
0.0990313
0.0948622
0.0909896
0.0873889
0.0840275
0.0808656
0.0778615
0.0749753
0.0721746
0.0694359
0.0667435
0.0640874
0.061459
0.058846
0.0562274
0.0535709
0.0508291
0.0479357
0.0447997
0.0412921
0.0372271
0.0323381
0.0262896
0.0188926
0.0109042
0.00464223
0.00150777
0.000417975
0.000106924
2.60319e-05
6.09207e-06
1.37572e-06
3.00552e-07
6.36823e-08
1.3122e-08
2.63706e-09
5.18467e-10
1.00047e-10
1.9012e-11
3.57003e-12
6.64638e-13
1.23117e-13
2.2785e-14
4.25472e-15
7.87441e-16
1.14306e-16
0
0
0
0
0
0
0
0
0
0
0
0
0
0
0
0
0
0
0
0
0
0
0
0
0
0
0
0
0
0
0
0
0
0
0
0
0
0
0
0
0
0
0
0
0
0
0
0
0
0
0
0
0
0
0
0
0
0
0
0
0
0
0
0
0
0
0
0
0
0
0
0
0
0
0
0
0
0
0
0
0
0.260184
0.254988
0.248482
0.240932
0.23259
0.223683
0.21442
0.204988
0.195544
0.18622
0.177118
0.168313
0.159859
0.151787
0.144112
0.136837
0.129958
0.123465
0.117345
0.111588
0.10618
0.101113
0.0963816
0.09198
0.0879037
0.0841449
0.0806864
0.0774961
0.0745258
0.0717186
0.0690189
0.0663826
0.0637818
0.0612019
0.058639
0.056091
0.0535502
0.0509957
0.0483892
0.0456706
0.0427511
0.0395046
0.0357545
0.0312562
0.0257069
0.0189158
0.0114368
0.00521612
0.00181312
0.000529918
0.000141259
3.55836e-05
8.57035e-06
1.98212e-06
4.41367e-07
9.48692e-08
1.97392e-08
3.98788e-09
7.84842e-10
1.50995e-10
2.85031e-11
5.3003e-12
9.75077e-13
1.78177e-13
3.24851e-14
5.97883e-15
1.13036e-15
1.84159e-16
3.17516e-18
0
0
0
0
0
0
0
0
0
0
0
0
0
0
0
0
0
0
0
0
0
0
0
0
0
0
0
0
0
0
0
0
0
0
0
0
0
0
0
0
0
0
0
0
0
0
0
0
0
0
0
0
0
0
0
0
0
0
0
0
0
0
0
0
0
0
0
0
0
0
0
0
0
0
0
0
0
0
0
0
0
0.246578
0.241739
0.235633
0.2285
0.220571
0.212067
0.203194
0.194138
0.18506
0.176088
0.167324
0.15884
0.150685
0.142887
0.135455
0.12839
0.121684
0.115327
0.109306
0.103608
0.0982262
0.0931561
0.0884005
0.0839293
0.0797578
0.0760448
0.0727135
0.0696912
0.0669269
0.0643425
0.0618527
0.0593915
0.056918
0.0544161
0.051889
0.049349
0.0468018
0.0442321
0.0415972
0.0388192
0.0357756
0.032289
0.0281286
0.0230432
0.0169389
0.0103811
0.00494484
0.0018381
0.000575785
0.000163243
4.3358e-05
1.09224e-05
2.62201e-06
6.01618e-07
1.32331e-07
2.79934e-08
5.71483e-09
1.12999e-09
2.17216e-10
4.07531e-11
7.49388e-12
1.35698e-12
2.4297e-13
4.3395e-14
7.83948e-15
1.4447e-15
2.47663e-16
3.17516e-18
0
0
0
0
0
0
0
0
0
0
0
0
0
0
0
0
0
0
0
0
0
0
0
0
0
0
0
0
0
0
0
0
0
0
0
0
0
0
0
0
0
0
0
0
0
0
0
0
0
0
0
0
0
0
0
0
0
0
0
0
0
0
0
0
0
0
0
0
0
0
0
0
0
0
0
0
0
0
0
0
0
0
0.234417
0.229817
0.223965
0.217085
0.209399
0.201129
0.192485
0.183659
0.174813
0.16608
0.157556
0.149309
0.141379
0.133785
0.126529
0.119605
0.112999
0.106693
0.100671
0.0949158
0.0894176
0.0841748
0.0788546
0.0735738
0.068552
0.0640449
0.0606448
0.0581705
0.0560592
0.0541262
0.0521826
0.0501127
0.047858
0.0454117
0.04281
0.0401146
0.0373822
0.0346296
0.0318293
0.0288998
0.02569
0.0219858
0.0176096
0.0126306
0.00766379
0.00376681
0.0015097
0.000519007
0.000160946
4.62664e-05
1.2467e-05
3.16473e-06
7.59575e-07
1.73022e-07
3.75588e-08
7.8033e-09
1.55845e-09
3.00484e-10
5.6168e-11
1.02222e-11
1.81957e-12
3.18361e-13
5.52542e-14
9.6779e-15
1.73364e-15
3.17516e-16
3.17516e-18
0
0
0
0
0
0
0
0
0
0
0
0
0
0
0
0
0
0
0
0
0
0
0
0
0
0
0
0
0
0
0
0
0
0
0
0
0
0
0
0
0
0
0
0
0
0
0
0
0
0
0
0
0
0
0
0
0
0
0
0
0
0
0
0
0
0
0
0
0
0
0
0
0
0
0
0
0
0
0
0
0
0
0
0.223536
0.219081
0.213358
0.206583
0.19898
0.190778
0.182202
0.173456
0.164714
0.156107
0.147729
0.139637
0.131858
0.124397
0.117243
0.110377
0.103774
0.0974014
0.091229
0.0852257
0.0793663
0.0730664
0.0665021
0.0597673
0.0530606
0.0469062
0.0417851
0.0394682
0.0380985
0.0373079
0.0365277
0.035417
0.0337792
0.0315695
0.0288856
0.0259407
0.022983
0.0201591
0.017535
0.0150735
0.0126039
0.00990188
0.00699593
0.00427114
0.00220701
0.000973005
0.000376751
0.000131815
4.23278e-05
1.25574e-05
3.45476e-06
8.84934e-07
2.12078e-07
4.78178e-08
1.02031e-08
2.07222e-09
4.02777e-10
7.52995e-11
1.36016e-11
2.38407e-12
4.07342e-13
6.81231e-14
1.14655e-14
1.96543e-15
3.20692e-16
3.17516e-18
0
0
0
0
0
0
0
0
0
0
0
0
0
0
0
0
0
0
0
0
0
0
0
0
0
0
0
0
0
0
0
0
0
0
0
0
0
0
0
0
0
0
0
0
0
0
0
0
0
0
0
0
0
0
0
0
0
0
0
0
0
0
0
0
0
0
0
0
0
0
0
0
0
0
0
0
0
0
0
0
0
0
0
0
0.213762
0.209348
0.203631
0.196834
0.189196
0.180968
0.172389
0.163468
0.154625
0.146034
0.137713
0.129698
0.121995
0.114589
0.107449
0.100535
0.0937944
0.0871721
0.0806025
0.0740129
0.0668806
0.058826
0.0501274
0.041248
0.0325887
0.0251702
0.0186053
0.0157465
0.0146416
0.0151312
0.0159332
0.0163959
0.0159596
0.0143983
0.0119705
0.00937791
0.0073129
0.00586432
0.0048919
0.0041863
0.00351139
0.00266552
0.00175075
0.000988069
0.000487391
0.000215426
8.69341e-05
3.22059e-05
1.08989e-05
3.35801e-06
9.43481e-07
2.43064e-07
5.78536e-08
1.28279e-08
2.67146e-09
5.26514e-10
9.88679e-11
1.77887e-11
3.08087e-12
5.15558e-13
8.37005e-14
1.34436e-14
2.18451e-15
3.49268e-16
3.17516e-18
0
0
0
0
0
0
0
0
0
0
0
0
0
0
0
0
0
0
0
0
0
0
0
0
0
0
0
0
0
0
0
0
0
0
0
0
0
0
0
0
0
0
0
0
0
0
0
0
0
0
0
0
0
0
0
0
0
0
0
0
0
0
0
0
0
0
0
0
0
0
0
0
0
0
0
0
0
0
0
0
0
0
0
0
0
0.204981
0.200497
0.194646
0.187664
0.179816
0.171384
0.162629
0.153623
0.14478
0.136012
0.127324
0.119303
0.111599
0.104157
0.0969119
0.0897851
0.0826844
0.0754967
0.0680815
0.0602605
0.0506403
0.0398724
0.0291639
0.0197624
0.01175
0.00649954
0.00282562
0.00163951
0.00183889
0.00333688
0.0045871
0.00530571
0.00507704
0.00390554
0.00240487
0.00128222
0.000871526
0.000711719
0.000662899
0.000665942
0.000659943
0.000532936
0.000348129
0.000193581
9.65323e-05
4.46724e-05
1.93915e-05
7.79249e-06
2.81524e-06
9.03427e-07
2.58225e-07
6.63961e-08
1.55462e-08
3.35525e-09
6.74999e-10
1.27823e-10
2.29711e-11
3.94234e-12
6.48937e-13
1.02736e-13
1.56567e-14
2.39407e-15
3.49268e-16
3.17516e-18
0
0
0
0
0
0
0
0
0
0
0
0
0
0
0
0
0
0
0
0
0
0
0
0
0
0
0
0
0
0
0
0
0
0
0
0
0
0
0
0
0
0
0
0
0
0
0
0
0
0
0
0
0
0
0
0
0
0
0
0
0
0
0
0
0
0
0
0
0
0
0
0
0
0
0
0
0
0
0
0
0
0
0
0
0
0
0.197096
0.192432
0.186296
0.178944
0.170681
0.161842
0.152726
0.143504
0.134524
0.125691
0.117091
0.108295
0.10038
0.0927626
0.0852209
0.0776071
0.0697477
0.0614255
0.0523568
0.0419626
0.0295385
0.0174884
0.00855683
0.003668
0.00125232
0.000561388
0.000199887
1.53067e-05
8.30956e-05
0.0014669
0.00147968
0.00160287
0.00132089
0.000738281
0.000255406
8.21819e-05
3.85355e-05
3.42777e-05
4.32992e-05
6.62178e-05
0.00010656
9.87075e-05
6.43536e-05
3.51122e-05
1.77386e-05
8.71363e-06
4.18679e-06
1.89527e-06
7.43993e-07
2.48701e-07
7.16401e-08
1.81404e-08
4.11811e-09
8.52772e-10
1.6348e-10
2.93724e-11
4.99475e-12
8.09508e-13
1.25536e-13
1.86604e-14
2.67984e-15
3.71494e-16
3.17516e-18
0
0
0
0
0
0
0
0
0
0
0
0
0
0
0
0
0
0
0
0
0
0
0
0
0
0
0
0
0
0
0
0
0
0
0
0
0
0
0
0
0
0
0
0
0
0
0
0
0
0
0
0
0
0
0
0
0
0
0
0
0
0
0
0
0
0
0
0
0
0
0
0
0
0
0
0
0
0
0
0
0
0
0
0
0
0
0
0.190017
0.185055
0.178463
0.170514
0.161574
0.152071
0.142391
0.132797
0.123545
0.114555
0.105866
0.0970849
0.0881333
0.0798327
0.0716447
0.0630621
0.053781
0.0434253
0.031613
0.018176
0.00777864
0.00253688
0.000727639
0.000268724
7.57069e-05
1.28622e-06
5.90026e-09
8.53971e-09
2.14911e-07
6.46117e-06
9.2148e-05
0.000534386
0.00034117
0.000123959
2.90854e-05
7.37402e-06
2.30439e-07
2.57463e-09
2.71177e-07
2.82774e-06
2.86622e-05
2.18695e-05
1.2064e-05
5.93456e-06
2.92074e-06
1.52422e-06
8.47517e-07
4.69382e-07
2.05112e-07
7.08429e-08
2.01792e-08
4.92841e-09
1.06334e-09
2.07392e-10
3.72462e-11
6.25285e-12
9.92928e-13
1.50385e-13
2.18292e-14
3.04181e-15
3.8102e-16
3.17516e-18
0
0
0
0
0
0
0
0
0
0
0
0
0
0
0
0
0
0
0
0
0
0
0
0
0
0
0
0
0
0
0
0
0
0
0
0
0
0
0
0
0
0
0
0
0
0
0
0
0
0
0
0
0
0
0
0
0
0
0
0
0
0
0
0
0
0
0
0
0
0
0
0
0
0
0
0
0
0
0
0
0
0
0
0
0
0
0
0
0.183659
0.178273
0.171013
0.162162
0.152177
0.141655
0.131151
0.120988
0.111317
0.10204
0.0930813
0.0840865
0.0748601
0.064516
0.0550006
0.0448143
0.0334423
0.0210536
0.00960802
0.0027767
0.000693144
0.00014767
3.53934e-05
9.36295e-07
4.56079e-09
7.78422e-10
7.04762e-12
5.81281e-12
1.38083e-10
3.83116e-09
7.52435e-08
1.66401e-05
6.16274e-05
1.58667e-05
1.81676e-06
1.02351e-08
1.05918e-11
7.66129e-13
9.81156e-11
1.87376e-09
7.41829e-07
4.26845e-06
1.80499e-06
7.58193e-07
3.51422e-07
1.97253e-07
1.39398e-07
1.18104e-07
5.92404e-08
2.06104e-08
5.63475e-09
1.2935e-09
2.59282e-10
4.66403e-11
7.69382e-12
1.18526e-12
1.73094e-13
2.42424e-14
3.27994e-15
4.06421e-16
3.17516e-18
0
0
0
0
0
0
0
0
0
0
0
0
0
0
0
0
0
0
0
0
0
0
0
0
0
0
0
0
0
0
0
0
0
0
0
0
0
0
0
0
0
0
0
0
0
0
0
0
0
0
0
0
0
0
0
0
0
0
0
0
0
0
0
0
0
0
0
0
0
0
0
0
0
0
0
0
0
0
0
0
0
0
0
0
0
0
0
0
0
0.177942
0.172002
0.163809
0.153605
0.141986
0.129876
0.118159
0.107158
0.0968694
0.0871047
0.0776403
0.068101
0.0581203
0.0467752
0.0343387
0.0229551
0.0121151
0.00438099
0.000871104
0.000148898
3.09441e-05
4.77622e-06
2.43227e-08
8.18321e-10
7.85599e-12
8.16036e-13
7.27747e-15
4.50238e-15
9.44833e-14
2.09142e-12
3.17017e-11
6.53645e-08
9.95913e-07
1.55405e-06
3.02126e-08
1.00545e-10
9.12415e-14
1.46058e-16
2.9691e-14
7.26109e-13
6.5552e-10
1.58193e-07
1.91823e-08
4.31367e-09
2.6509e-09
4.66108e-09
7.03434e-09
4.05859e-08
1.79941e-08
5.78153e-09
1.46719e-09
3.09931e-10
5.65713e-11
9.18513e-12
1.36011e-12
1.87938e-13
2.47567e-14
3.16246e-15
3.74669e-16
3.17516e-18
0
0
0
0
0
0
0
0
0
0
0
0
0
0
0
0
0
0
0
0
0
0
0
0
0
0
0
0
0
0
0
0
0
0
0
0
0
0
0
0
0
0
0
0
0
0
0
0
0
0
0
0
0
0
0
0
0
0
0
0
0
0
0
0
0
0
0
0
0
0
0
0
0
0
0
0
0
0
0
0
0
0
0
0
0
0
0
0
0
0
0.172803
0.1662
0.156739
0.14446
0.130122
0.11533
0.101755
0.0895362
0.0784258
0.0680513
0.0580238
0.0479277
0.0373249
0.0256475
0.0137541
0.00601287
0.00187096
0.000331231
3.34125e-05
3.72249e-06
6.46822e-08
6.13795e-09
4.62143e-11
1.09367e-12
1.13099e-14
7.6839e-16
0
0
0
1.16211e-15
2.06132e-14
3.75623e-11
9.51904e-09
1.25174e-07
1.70257e-09
3.92555e-12
3.95625e-15
0
0
2.47663e-16
7.73268e-11
5.66866e-09
1.26855e-10
2.34234e-12
2.50583e-12
6.22813e-11
2.20461e-10
1.22353e-08
4.98246e-09
1.46777e-09
3.39444e-10
6.45939e-11
1.04728e-11
1.48966e-12
1.91294e-13
2.2858e-14
2.62586e-15
2.69889e-16
3.17516e-18
0
0
0
0
0
0
0
0
0
0
0
0
0
0
0
0
0
0
0
0
0
0
0
0
0
0
0
0
0
0
0
0
0
0
0
0
0
0
0
0
0
0
0
0
0
0
0
0
0
0
0
0
0
0
0
0
0
0
0
0
0
0
0
0
0
0
0
0
0
0
0
0
0
0
0
0
0
0
0
0
0
0
0
0
0
0
0
0
0
0
0
0.168201
0.160921
0.149849
0.134323
0.11503
0.095116
0.0787077
0.0651476
0.053822
0.043793
0.0343693
0.0251848
0.0161613
0.00798992
0.00281652
0.000751574
0.000128361
7.76176e-06
3.58808e-07
5.28579e-09
1.01059e-10
1.45654e-11
9.38801e-14
1.57488e-15
0
0
0
0
0
0
0
6.84121e-14
9.76638e-11
7.92562e-09
3.52677e-11
1.54662e-14
0
0
0
0
2.65816e-12
1.37836e-10
4.23653e-13
1.12718e-15
1.27642e-15
6.71131e-13
1.06124e-11
3.3706e-09
1.24913e-09
3.30222e-10
6.77362e-11
1.12613e-11
1.56154e-12
1.85144e-13
1.93526e-14
1.83842e-15
1.14306e-16
0
0
0
0
0
0
0
0
0
0
0
0
0
0
0
0
0
0
0
0
0
0
0
0
0
0
0
0
0
0
0
0
0
0
0
0
0
0
0
0
0
0
0
0
0
0
0
0
0
0
0
0
0
0
0
0
0
0
0
0
0
0
0
0
0
0
0
0
0
0
0
0
0
0
0
0
0
0
0
0
0
0
0
0
0
0
0
0
0
0
0
0
0
0.164124
0.156398
0.143778
0.123523
0.0936894
0.0600653
0.0377763
0.0225199
0.0237077
0.018063
0.0124386
0.00745981
0.00361014
0.00123084
0.00030336
5.28661e-05
3.79475e-06
2.86479e-08
5.35481e-10
1.37055e-11
1.95866e-13
2.75509e-14
3.17516e-18
0
0
0
0
0
0
0
0
3.17516e-18
1.63486e-13
5.24201e-10
6.61199e-13
3.17516e-18
0
0
0
0
7.07744e-14
1.93215e-12
4.44523e-16
0
0
8.60469e-15
1.06127e-11
8.7789e-10
2.92058e-10
6.72871e-11
1.17255e-11
1.60463e-12
1.76098e-13
1.58853e-14
1.15893e-15
3.17516e-18
0
0
0
0
0
0
0
0
0
0
0
0
0
0
0
0
0
0
0
0
0
0
0
0
0
0
0
0
0
0
0
0
0
0
0
0
0
0
0
0
0
0
0
0
0
0
0
0
0
0
0
0
0
0
0
0
0
0
0
0
0
0
0
0
0
0
0
0
0
0
0
0
0
0
0
0
0
0
0
0
0
0
0
0
0
0
0
0
0
0
0
0
0
0
0.160533
0.152925
0.140377
0.12007
0.0906838
0.0585311
0.00764083
0.000590772
0.00129981
0.00248287
0.0016561
0.000794776
0.000379315
8.98969e-05
1.6492e-05
2.38202e-06
1.78236e-08
1.00003e-10
1.0966e-12
2.75414e-14
1.30182e-16
0
0
0
0
0
0
0
0
0
0
0
3.17516e-18
3.3465e-11
6.36239e-14
0
0
0
0
0
1.87652e-15
2.22833e-14
0
0
0
3.17516e-18
3.13166e-11
2.25764e-10
6.4463e-11
1.2812e-11
1.89307e-12
2.13155e-13
1.82e-14
1.12718e-15
3.17516e-18
0
0
0
0
0
0
0
0
0
0
0
0
0
0
0
0
0
0
0
0
0
0
0
0
0
0
0
0
0
0
0
0
0
0
0
0
0
0
0
0
0
0
0
0
0
0
0
0
0
0
0
0
0
0
0
0
0
0
0
0
0
0
0
0
0
0
0
0
0
0
0
0
0
0
0
0
0
0
0
0
0
0
0
0
0
0
0
0
0
0
0
0
0
0
0
0.157168
0.149936
0.13813
0.119206
0.0922134
0.0630796
0.0566888
6.98695e-06
7.46659e-06
4.88572e-10
4.06506e-08
1.8408e-06
2.84942e-05
1.04065e-06
9.94099e-08
5.34699e-09
6.47043e-11
3.18891e-13
2.40677e-15
0
0
0
0
0
0
0
0
0
0
0
0
0
0
1.98401e-12
2.27977e-15
0
0
0
0
0
3.17516e-18
1.80984e-16
0
0
0
7.65849e-15
7.90697e-12
4.77223e-11
1.29282e-11
2.2432e-12
2.82107e-13
2.6465e-14
1.76857e-15
3.17516e-18
0
0
0
0
0
0
0
0
0
0
0
0
0
0
0
0
0
0
0
0
0
0
0
0
0
0
0
0
0
0
0
0
0
0
0
0
0
0
0
0
0
0
0
0
0
0
0
0
0
0
0
0
0
0
0
0
0
0
0
0
0
0
0
0
0
0
0
0
0
0
0
0
0
0
0
0
0
0
0
0
0
0
0
0
0
0
0
0
0
0
0
0
0
0
0
0
0.153882
0.147119
0.136263
0.119162
0.0952142
0.0696568
0.0608779
0.0585346
5.05278e-08
3.32084e-12
2.10053e-10
9.41678e-09
1.54825e-07
4.95426e-09
4.80659e-10
1.50695e-11
1.83591e-13
6.92186e-16
0
0
0
0
0
0
0
0
0
0
0
0
0
0
0
1.11569e-13
3.17516e-18
0
0
0
0
0
0
0
0
0
0
4.31822e-15
2.10436e-12
1.03104e-11
2.5282e-12
3.59702e-13
3.82321e-14
3.15929e-15
1.30182e-16
0
0
0
0
0
0
0
0
0
0
0
0
0
0
0
0
0
0
0
0
0
0
0
0
0
0
0
0
0
0
0
0
0
0
0
0
0
0
0
0
0
0
0
0
0
0
0
0
0
0
0
0
0
0
0
0
0
0
0
0
0
0
0
0
0
0
0
0
0
0
0
0
0
0
0
0
0
0
0
0
0
0
0
0
0
0
0
0
0
0
0
0
0
0
0
0
0
0.150608
0.144345
0.134492
0.119287
0.0983758
0.076047
0.0653281
0.0605444
0.0581472
0.000116919
8.53687e-13
4.18336e-11
7.34048e-10
1.93424e-11
1.67365e-12
4.26234e-14
2.57188e-16
0
0
0
0
0
0
0
0
0
0
0
0
0
0
0
0
6.04234e-15
0
0
0
0
0
0
0
0
0
0
0
1.9813e-15
5.94438e-13
2.46306e-12
5.13294e-13
4.83038e-14
4.32775e-15
4.15946e-16
0
0
0
0
0
0
0
0
0
0
0
0
0
0
0
0
0
0
0
0
0
0
0
0
0
0
0
0
0
0
0
0
0
0
0
0
0
0
0
0
0
0
0
0
0
0
0
0
0
0
0
0
0
0
0
0
0
0
0
0
0
0
0
0
0
0
0
0
0
0
0
0
0
0
0
0
0
0
0
0
0
0
0
0
0
0
0
0
0
0
0
0
0
0
0
0
0
0
0.147303
0.141531
0.132637
0.119206
0.101027
0.0814481
0.069683
0.0631756
0.0593751
0.0565091
0.0122464
0.000133718
3.22959e-08
5.68069e-14
4.36267e-15
3.17516e-18
0
0
0
0
0
0
0
0
0
0
0
0
0
0
0
0
0
2.38137e-16
0
0
0
0
0
0
0
0
0
0
0
9.46199e-16
1.67893e-13
7.07982e-13
1.67652e-13
2.25754e-15
8.57294e-17
3.17516e-18
0
0
0
0
0
0
0
0
0
0
0
0
0
0
0
0
0
0
0
0
0
0
0
0
0
0
0
0
0
0
0
0
0
0
0
0
0
0
0
0
0
0
0
0
0
0
0
0
0
0
0
0
0
0
0
0
0
0
0
0
0
0
0
0
0
0
0
0
0
0
0
0
0
0
0
0
0
0
0
0
0
0
0
0
0
0
0
0
0
0
0
0
0
0
0
0
0
0
0.143944
0.138629
0.130605
0.118739
0.102903
0.085657
0.0735964
0.0659742
0.0610916
0.0576087
0.0536824
0.0503313
0.0449855
0.00541399
0.000106757
5.97354e-07
1.0915e-09
7.40839e-13
0
0
0
0
0
0
0
0
0
0
0
0
0
0
0
0
0
0
0
0
0
0
0
0
0
0
0
1.68284e-16
4.60843e-14
2.08227e-13
5.768e-14
6.79485e-16
0
0
0
0
0
0
0
0
0
0
0
0
0
0
0
0
0
0
0
0
0
0
0
0
0
0
0
0
0
0
0
0
0
0
0
0
0
0
0
0
0
0
0
0
0
0
0
0
0
0
0
0
0
0
0
0
0
0
0
0
0
0
0
0
0
0
0
0
0
0
0
0
0
0
0
0
0
0
0
0
0
0
0
0
0
0
0
0
0
0
0
0
0
0
0
0
0
0
0
0
0.140523
0.135621
0.12836
0.117829
0.10395
0.0886764
0.0768138
0.0685678
0.0629056
0.0588266
0.0552992
0.0515613
0.0463828
0.0389313
1.00526e-05
4.59997e-09
6.04818e-12
1.03637e-14
0
0
0
0
0
0
0
0
0
0
0
0
0
0
0
0
0
0
0
0
0
0
0
0
0
0
0
9.52549e-18
1.19037e-14
5.7934e-14
2.2061e-14
4.29917e-15
2.98465e-16
0
0
0
0
0
0
0
0
0
0
0
0
0
0
0
0
0
0
0
0
0
0
0
0
0
0
0
0
0
0
0
0
0
0
0
0
0
0
0
0
0
0
0
0
0
0
0
0
0
0
0
0
0
0
0
0
0
0
0
0
0
0
0
0
0
0
0
0
0
0
0
0
0
0
0
0
0
0
0
0
0
0
0
0
0
0
0
0
0
0
0
0
0
0
0
0
0
0
0
0.137045
0.132507
0.125897
0.116482
0.10421
0.0905899
0.0791942
0.0706749
0.0644687
0.0598259
0.0559411
0.0520285
0.0471705
0.040185
0.000761857
9.0284e-07
5.45614e-10
2.5656e-13
3.17516e-18
0
0
0
0
0
0
0
0
0
0
0
0
0
0
0
0
0
0
0
0
0
0
0
0
0
0
3.17516e-18
2.47028e-15
1.39453e-14
6.49003e-15
1.30817e-15
6.35033e-17
0
0
0
0
0
0
0
0
0
0
0
0
0
0
0
0
0
0
0
0
0
0
0
0
0
0
0
0
0
0
0
0
0
0
0
0
0
0
0
0
0
0
0
0
0
0
0
0
0
0
0
0
0
0
0
0
0
0
0
0
0
0
0
0
0
0
0
0
0
0
0
0
0
0
0
0
0
0
0
0
0
0
0
0
0
0
0
0
0
0
0
0
0
0
0
0
0
0
0
0.13352
0.129298
0.123236
0.114735
0.103767
0.0915174
0.0807048
0.0721509
0.0656051
0.0605229
0.0562798
0.0522554
0.0477678
0.0417766
0.0380896
0.0129555
0.00103275
3.50275e-05
7.73878e-07
1.32717e-08
1.51088e-05
1.7933e-07
1.76996e-09
7.37649e-12
3.52443e-16
0
0
0
0
0
0
2.5595e-14
3.17516e-18
0
0
0
0
0
0
0
0
0
0
0
0
0
5.08026e-17
4.20074e-15
1.80667e-15
3.39742e-16
0
0
0
0
0
0
0
0
0
0
0
0
0
0
0
0
0
0
0
0
0
0
0
0
0
0
0
0
0
0
0
0
0
0
0
0
0
0
0
0
0
0
0
0
0
0
0
0
0
0
0
0
0
0
0
0
0
0
0
0
0
0
0
0
0
0
0
0
0
0
0
0
0
0
0
0
0
0
0
0
0
0
0
0
0
0
0
0
0
0
0
0
0
0
0
0
0
0
0
0
0.129969
0.126014
0.120403
0.11264
0.102716
0.0915876
0.0813813
0.0729491
0.0662391
0.0608719
0.0563765
0.0522878
0.0481238
0.0431912
0.0393352
0.0354722
0.0321948
0.028881
0.0248633
0.0196188
0.0129512
0.00633175
0.00211977
0.000454451
6.73586e-06
1.99996e-08
1.13602e-11
5.59464e-15
0
0
2.76773e-11
2.77102e-11
3.46516e-11
2.67373e-12
2.6223e-13
3.12754e-15
0
0
0
0
0
0
0
0
0
0
0
1.21291e-15
4.76275e-16
2.22261e-17
0
0
0
0
0
0
0
0
0
0
0
0
0
0
0
0
0
0
0
0
0
0
0
0
0
0
0
0
0
0
0
0
0
0
0
0
0
0
0
0
0
0
0
0
0
0
0
0
0
0
0
0
0
0
0
0
0
0
0
0
0
0
0
0
0
0
0
0
0
0
0
0
0
0
0
0
0
0
0
0
0
0
0
0
0
0
0
0
0
0
0
0
0
0
0
0
0
0
0
0
0.126414
0.12268
0.117431
0.110249
0.101144
0.0909185
0.0812864
0.0730685
0.0663304
0.0608159
0.056171
0.0520453
0.0480941
0.0438862
0.0401927
0.0369491
0.0336731
0.0299602
0.0252891
0.0191739
0.011934
0.00556076
0.00193343
0.00053436
0.000143256
5.47357e-06
9.79528e-08
1.46481e-09
1.98513e-11
1.53724e-09
8.59667e-09
2.13726e-09
5.02086e-10
7.96178e-11
1.21084e-11
2.35892e-12
3.63242e-13
1.41454e-14
2.97005e-14
4.91515e-15
6.92186e-16
3.17516e-18
0
0
0
0
3.17516e-18
3.30217e-16
8.57294e-17
0
0
0
0
0
0
0
0
0
0
0
0
0
0
0
0
0
0
0
0
0
0
0
0
0
0
0
0
0
0
0
0
0
0
0
0
0
0
0
0
0
0
0
0
0
0
0
0
0
0
0
0
0
0
0
0
0
0
0
0
0
0
0
0
0
0
0
0
0
0
0
0
0
0
0
0
0
0
0
0
0
0
0
0
0
0
0
0
0
0
0
0
0
0
0
0
0
0
0
0
0
0.122884
0.119325
0.114352
0.10761
0.0991276
0.0896069
0.0804836
0.0725219
0.0658487
0.0602904
0.0555745
0.0514254
0.0475793
0.0437413
0.0401514
0.0367565
0.0331467
0.028834
0.0232539
0.016238
0.00899004
0.00380212
0.00132716
0.000427567
0.000139304
5.09528e-05
1.52418e-05
1.29205e-06
4.75463e-07
1.59217e-07
5.64205e-08
1.48859e-08
3.41431e-09
6.83751e-10
1.31072e-10
2.60542e-11
5.01992e-12
1.28197e-12
3.21704e-13
5.76578e-14
8.87141e-15
1.11448e-15
5.08026e-17
0
0
0
0
3.17516e-18
0
0
0
0
0
0
0
0
0
0
0
0
0
0
0
0
0
0
0
0
0
0
0
0
0
0
0
0
0
0
0
0
0
0
0
0
0
0
0
0
0
0
0
0
0
0
0
0
0
0
0
0
0
0
0
0
0
0
0
0
0
0
0
0
0
0
0
0
0
0
0
0
0
0
0
0
0
0
0
0
0
0
0
0
0
0
0
0
0
0
0
0
0
0
0
0
0
0
0
0
0
0
0.119406
0.115977
0.111199
0.104762
0.0967216
0.0877235
0.0790219
0.0713197
0.0647656
0.0592328
0.0544981
0.0503293
0.0465031
0.0427783
0.039133
0.0353904
0.0310961
0.0256475
0.0186749
0.0110069
0.00496175
0.00181393
0.000612586
0.000210735
7.66695e-05
2.93423e-05
1.15446e-05
4.96353e-06
2.00867e-06
6.58576e-07
1.96118e-07
5.17561e-08
1.25209e-08
2.8242e-09
6.11049e-10
1.31831e-10
2.86951e-11
6.68055e-12
1.4985e-12
2.91642e-13
4.88277e-14
6.96631e-15
8.28718e-16
3.17516e-18
0
0
0
0
0
0
0
0
0
0
0
0
0
0
0
0
0
0
0
0
0
0
0
0
0
0
0
0
0
0
0
0
0
0
0
0
0
0
0
0
0
0
0
0
0
0
0
0
0
0
0
0
0
0
0
0
0
0
0
0
0
0
0
0
0
0
0
0
0
0
0
0
0
0
0
0
0
0
0
0
0
0
0
0
0
0
0
0
0
0
0
0
0
0
0
0
0
0
0
0
0
0
0
0
0
0
0.116011
0.112665
0.107998
0.101735
0.0939604
0.0853081
0.0769267
0.0694604
0.0630491
0.0575813
0.0528541
0.0486511
0.0447536
0.0409104
0.0369125
0.0323777
0.0267017
0.0194484