/*--------------------------------*- C++ -*----------------------------------*\
| =========                 |                                                 |
| \\      /  F ield         | OpenFOAM: The Open Source CFD Toolbox           |
|  \\    /   O peration     | Version:  2.1.0                                 |
|   \\  /    A nd           | Web:      www.OpenFOAM.org                      |
|    \\/     M anipulation  |                                                 |
\*---------------------------------------------------------------------------*/
FoamFile
{
    version     2.0;
    format      ascii;
    class       surfaceScalarField;
    location    "8030";
    object      phi_w;
}
// * * * * * * * * * * * * * * * * * * * * * * * * * * * * * * * * * * * * * //

dimensions      [1 -2 -2 0 0 0 0];

internalField   nonuniform List<scalar> 
29750
(
18.5905
18.6245
11.3519
7.39104
8.24192
3.59309
6.75002
2.11932
5.91283
1.4331
5.37987
1.05568
5.01393
0.821161
4.75238
0.662287
4.56239
0.547612
4.42494
0.460735
4.32819
0.392382
4.26434
0.336978
4.22807
0.291038
4.21564
0.25232
4.22417
0.219347
4.25102
0.191037
4.29379
0.166598
4.35035
0.145464
4.4188
0.127224
4.49733
0.111576
4.58428
0.0982864
4.67807
0.087178
4.77723
0.0781001
4.88034
0.0709113
4.98609
0.0654741
5.09329
0.0616482
5.20085
0.0592804
5.30782
0.0582069
5.4134
0.0582737
5.51694
0.059335
5.6179
0.0612497
5.71589
0.0638976
5.81059
0.0671861
5.90183
0.071039
5.98948
0.0753793
6.07357
0.0801524
6.15424
0.0852917
6.23176
0.0907117
6.30666
0.0963163
6.37967
0.102008
6.4519
0.10768
6.52478
0.113231
6.60023
0.118589
6.68083
0.12369
6.76981
0.128542
6.87172
0.133295
6.99281
0.138345
7.14188
0.144536
7.33119
0.153483
7.57691
0.16813
7.89498
0.193327
8.2734
0.234015
8.57871
0.280919
8.54191
0.281267
8.23768
0.21333
7.9825
0.156021
7.8189
0.126963
7.69999
0.108897
7.60327
0.0942588
7.52133
0.0813541
7.45129
0.0699183
7.39136
0.059898
7.34004
0.0512866
7.29595
0.0440778
7.25776
0.03819
7.22421
0.0335512
7.19415
0.0300405
7.1666
0.0275735
7.14063
0.0259672
7.11554
0.0250874
7.09074
0.024808
7.06577
0.0249864
7.04029
0.0255047
7.01405
0.0262453
6.98691
0.0271482
6.9588
0.0281492
6.92965
0.0291613
6.89952
0.0301374
6.8685
0.0310256
6.83674
0.0317564
6.80448
0.0322677
6.77199
0.0324917
6.73964
0.032366
6.70783
0.0318339
6.67701
0.0308292
6.64771
0.0293023
6.62047
0.0272279
6.59589
0.0245803
6.57456
0.0213398
6.55708
0.0174965
6.54406
0.0130289
6.53615
0.00791063
6.53401
0.00212654
6.53836
-0.00435028
6.54993
-0.0115743
6.56954
-0.0196125
6.59808
-0.0285446
6.63655
-0.0384787
6.68608
-0.049544
6.74796
-0.0618866
6.82366
-0.0756904
6.91485
-0.0911835
7.02345
-0.108617
7.15168
-0.128261
7.30209
-0.150418
7.47749
-0.175418
7.68107
-0.203583
7.91627
-0.235201
8.18676
-0.27049
8.49627
-0.309516
8.84831
-0.352068
9.24581
-0.397516
9.69047
-0.444671
10.1821
-0.491619
10.7177
-0.535667
11.2913
-0.573585
11.8937
-0.602367
12.5144
-0.620666
13.1451
-0.630697
13.7848
-0.639757
14.4446
-0.659831
15.1493
-0.704663
15.9355
-0.786209
16.8466
-0.911041
17.922
-1.07548
19.18
-1.25794
20.5893
-1.40933
22.0393
-1.45
23.336
-1.29669
24.2848
-0.948765
24.8587
-0.573856
25.1014
-0.242713
25.0548
0.0465998
24.7348
0.320027
24.1471
0.587738
23.3324
0.814652
22.4008
0.93165
21.3943
1.00643
20.275
1.11937
18.9719
1.30306
17.4375
1.5344
15.6831
1.7544
13.7584
1.92468
11.7359
2.02251
9.68567
2.05027
7.65768
2.02798
5.67742
1.98025
3.74934
1.92807
1.86319
1.88614
1.86318
7.35699
11.4195
7.554
7.6214
6.76815
4.99261
6.06379
3.44831
5.53541
2.52501
5.14535
1.94003
4.85506
1.54601
4.6377
1.26574
4.47551
1.05696
4.35659
0.895321
4.27279
0.766158
4.2184
0.660279
4.18935
0.571758
4.18267
0.496693
4.19586
0.432414
4.22658
0.376972
4.27265
0.328942
4.33212
0.287294
4.40315
0.251274
4.48404
0.220323
4.57317
0.194024
4.669
0.172053
4.77004
0.154121
4.8749
0.139963
4.98227
0.129316
5.09092
0.121893
5.19978
0.11739
5.30789
0.11549
5.41446
0.115872
5.51885
0.118224
5.62055
0.122269
5.71918
0.127784
5.81445
0.134573
5.90617
0.142486
5.99426
0.151404
6.07871
0.16121
6.15966
0.171774
6.23736
0.18295
6.31235
0.194576
6.38535
0.206447
6.45745
0.218358
6.53014
0.230112
6.60533
0.241542
6.68569
0.252608
6.77457
0.263357
6.87677
0.274165
6.999
0.285893
7.15083
0.300235
7.34584
0.32023
7.60211
0.350916
7.93567
0.399133
8.3203
0.467442
8.57906
0.526573
8.47397
0.495299
8.18037
0.38762
7.95345
0.30424
7.80084
0.253695
7.68535
0.217561
7.59036
0.187637
7.50989
0.161473
7.44127
0.138442
7.38275
0.118385
7.33283
0.101212
7.29006
0.0868324
7.25312
0.0751282
7.2207
0.0659492
7.19169
0.0590879
7.16499
0.0542568
7.13975
0.0511912
7.11526
0.0495991
7.09092
0.0491776
7.06629
0.0496478
7.04103
0.0507606
7.01495
0.0523422
6.98791
0.0542283
6.95981
0.0562639
6.93063
0.0583479
6.9004
0.060371
6.86923
0.0622069
6.83725
0.0637369
6.8047
0.0648284
6.77187
0.0653461
6.73911
0.0651613
6.70682
0.0641393
6.67549
0.062164
6.64563
0.0591522
6.61783
0.0550346
6.59265
0.0497599
6.57071
0.0432988
6.55261
0.0356189
6.53894
0.0266856
6.53036
0.016475
6.52753
0.00495111
6.53114
-0.00795715
6.5419
-0.0223455
6.56061
-0.0383362
6.58815
-0.0560966
6.62548
-0.0758365
6.67373
-0.0978025
6.73416
-0.1223
6.80817
-0.149707
6.89741
-0.180458
7.0038
-0.21504
7.12953
-0.25401
7.27709
-0.297998
7.44933
-0.347671
7.64945
-0.403702
7.88098
-0.466732
8.14774
-0.537269
8.45371
-0.615532
8.80286
-0.701238
9.19865
-0.793322
9.64353
-0.889559
10.138
-0.986148
10.6798
-1.07746
11.2625
-1.15629
11.8754
-1.21522
12.5043
-1.24961
13.136
-1.26236
13.7647
-1.26849
14.3998
-1.29491
15.0678
-1.37262
15.8107
-1.52913
16.6821
-1.78246
17.7396
-2.13293
19.0286
-2.54697
20.5487
-2.92939
22.1926
-3.09396
23.684
-2.78798
24.6597
-1.92451
25.1898
-1.10395
25.3907
-0.443593
25.3282
0.109095
25.0025
0.645772
24.374
1.21627
23.4494
1.73922
22.4755
1.90553
21.5073
1.97472
20.4587
2.16798
19.2033
2.55845
17.6575
3.08013
15.8534
3.55853
13.8563
3.92182
11.7637
4.11507
9.66338
4.15059
7.60996
4.08138
5.62525
3.96494
3.7074
3.84591
1.84024
3.75329
3.70341
3.55887
8.34221
4.9252
6.86844
5.22385
5.32412
5.1405
4.11373
4.95043
3.23372
4.75133
2.59857
4.57479
2.13181
4.42892
1.77946
4.31387
1.50579
4.22743
1.28746
4.16691
1.10911
4.12988
0.960502
4.11428
0.834721
4.11839
0.727059
4.14042
0.634147
4.17855
0.553489
4.231
0.483255
4.2961
0.422105
4.3722
0.369057
4.45774
0.323391
4.5512
0.284566
4.65106
0.25214
4.75588
0.225731
4.86425
0.204977
4.97485
0.189501
5.08642
0.178882
5.19788
0.172661
5.30827
0.170349
5.41682
0.171444
5.5229
0.175468
5.62607
0.182009
5.72597
0.190707
5.82236
0.201285
5.91508
0.213539
6.00406
0.22732
6.08928
0.242477
6.17083
0.258858
6.24899
0.276253
6.32422
0.294418
6.39726
0.313055
6.4692
0.331862
6.54157
0.350555
6.6164
0.368891
6.69644
0.386796
6.78537
0.404413
6.8885
0.422364
7.01334
0.441995
7.17082
0.465813
7.37652
0.49804
7.65032
0.545134
8.00398
0.61413
8.37943
0.699814
8.54778
0.745272
8.36629
0.667146
8.09699
0.536706
7.9029
0.440993
7.7647
0.374722
7.65543
0.322477
7.5642
0.277806
7.48686
0.238573
7.42121
0.20406
7.36557
0.174014
7.31845
0.14834
7.27836
0.126895
7.24394
0.109556
7.21384
0.0960453
7.18685
0.0860439
7.16193
0.0791707
7.13816
0.0749593
7.11483
0.0729394
7.09139
0.0726349
7.0674
0.0736206
7.04261
0.0755551
7.01684
0.0781333
6.98995
0.0811152
6.96189
0.0843301
6.93265
0.0876096
6.90224
0.0907844
6.87076
0.0936944
6.83835
0.096155
6.80522
0.0979632
6.77168
0.0989128
6.73809
0.0987876
6.70485
0.097384
6.67248
0.0945352
6.64151
0.090105
6.61255
0.0839909
6.58619
0.0761282
6.56303
0.0664678
6.54367
0.0549689
6.52873
0.0416082
6.51884
0.0263579
6.51462
0.00915724
6.51675
-0.0100883
6.52591
-0.0315086
6.54285
-0.0552892
6.56841
-0.0816744
6.60352
-0.110961
6.64924
-0.143519
6.70675
-0.179811
6.77742
-0.22039
6.86283
-0.265892
6.96483
-0.317054
7.08554
-0.374732
7.22741
-0.439885
7.39329
-0.513551
7.58642
-0.596817
7.81044
-0.690763
8.06947
-0.796324
8.36801
-0.914089
8.71078
-1.04402
9.10242
-1.18498
9.54694
-1.3341
10.0467
-1.48595
10.601
-1.63171
11.2036
-1.75891
11.841
-1.85263
12.4916
-1.90018
13.1299
-1.90064
13.7383
-1.87694
14.3221
-1.8787
14.9113
-1.96178
15.5574
-2.17521
16.3316
-2.55674
17.3256
-3.12685
18.6462
-3.86762
20.3841
-4.6673
22.4986
-5.20846
24.5474
-4.83678
25.4803
-2.85736
25.8502
-1.47385
25.9434
-0.536801
25.8649
0.187606
25.573
0.937698
24.8969
1.89234
23.6157
3.02043
22.5447
2.97653
21.7005
2.81894
20.8491
3.01939
19.7249
3.68263
18.1359
4.66916
16.2167
5.47777
14.0495
6.08898
11.7992
6.36537
9.59417
6.35562
7.49352
6.18202
5.50622
5.95223
3.61479
5.73732
1.79036
5.5777
5.49376
2.08511
6.88441
3.38088
6.1981
4.01346
5.27434
4.26048
4.39375
4.31528
3.65151
4.28457
3.0536
4.22244
2.57702
4.15525
2.19493
4.09555
1.88452
4.04908
1.62835
4.0183
1.41364
4.0041
1.23119
4.00662
1.07446
4.02548
0.938734
4.05976
0.820451
4.10831
0.716946
4.16985
0.62624
4.24305
0.546871
4.32653
0.477767
4.41892
0.418143
4.51877
0.367396
4.62465
0.325043
4.73513
0.290657
4.84878
0.263812
4.96423
0.244036
5.0802
0.23079
5.19556
0.223455
5.30936
0.221338
5.42084
0.223745
5.52944
0.230003
5.63476
0.239515
5.73655
0.251804
5.83462
0.26653
5.92886
0.283462
6.01922
0.302444
6.10566
0.32334
6.18823
0.345997
6.26715
0.370161
6.34286
0.395516
6.41606
0.421665
6.48789
0.448184
6.5599
0.474683
6.6343
0.500841
6.71405
0.526531
6.80333
0.552007
6.90813
0.578175
7.03716
0.606858
7.20305
0.641335
7.42362
0.686994
7.71932
0.751346
8.08966
0.839553
8.42489
0.930666
8.46966
0.93599
8.23585
0.810084
8.00127
0.66988
7.83663
0.56717
7.71246
0.488137
7.61076
0.421509
7.52497
0.362961
7.45235
0.311023
7.39116
0.265183
7.3399
0.225274
7.297
0.191189
7.26102
0.162883
7.23043
0.14012
7.20384
0.122608
7.17998
0.109912
7.15772
0.10144
7.13614
0.096552
7.11453
0.0945522
7.09237
0.0947859
7.06933
0.0966714
7.04519
0.0996993
7.01982
0.103496
6.99316
0.107791
6.96517
0.112348
6.93582
0.116965
6.90515
0.121465
6.87322
0.125635
6.84015
0.129227
6.80617
0.131967
6.77156
0.133552
6.73668
0.133677
6.702
0.132066
6.66804
0.128481
6.6354
0.122735
6.60469
0.1147
6.57653
0.10429
6.55153
0.0914518
6.53031
0.0761652
6.51348
0.0584222
6.50164
0.0381915
6.49538
0.015407
6.49533
-0.0100376
6.50213
-0.0383095
6.51646
-0.0696458
6.53912
-0.10435
6.57096
-0.142804
6.61295
-0.185501
6.66617
-0.233046
6.73192
-0.28615
6.81167
-0.345651
6.90715
-0.412541
7.02039
-0.487975
7.15375
-0.573253
7.31003
-0.669822
7.49247
-0.779258
7.70488
-0.903188
7.95171
-1.04317
8.23808
-1.20047
8.56981
-1.37576
8.95329
-1.56847
9.39509
-1.77591
9.90096
-1.99181
10.4738
-2.20453
11.1099
-2.395
11.7935
-2.5362
12.4911
-2.59784
13.1536
-2.56308
13.7366
-2.45995
14.239
-2.38116
14.6978
-2.42059
15.1758
-2.6532
15.7615
-3.14245
16.5848
-3.95011
17.8465
-5.12935
19.8429
-6.66372
22.8703
-8.2358
26.5269
-8.49332
26.8638
-3.19431
26.7872
-1.39731
26.6678
-0.417358
26.615
0.24043
26.5276
1.02507
26.025
2.39497
23.5718
5.47365
22.3871
4.16121
21.901
3.30512
21.5124
3.40802
20.7115
4.48353
18.9445
6.43612
16.8279
7.5944
14.3259
8.59094
11.7895
8.90182
9.42057
8.72449
7.26373
8.33885
5.29131
7.92464
3.45516
7.57345
1.70641
7.32643
7.20016
1.39879
6.0838
2.45712
5.70566
3.13287
5.11913
3.51825
4.482
3.71737
3.88252
3.80799
3.35447
3.84034
2.90255
3.84484
2.51931
3.83937
2.19393
3.83437
1.91598
3.83586
1.67665
3.84737
1.46898
3.87089
1.28766
3.9072
1.12851
3.95626
0.988282
4.01761
0.864463
4.09048
0.755165
4.17394
0.658985
4.26691
0.574895
4.36817
0.502133
4.47642
0.440135
4.59027
0.38845
4.70829
0.346665
4.829
0.314341
4.95098
0.290948
5.07287
0.275827
5.19345
0.268179
5.31177
0.267101
5.4271
0.27163
5.53895
0.28085
5.64705
0.293958
5.75127
0.310352
5.85155
0.329633
5.94785
0.351586
6.04012
0.376131
6.12832
0.403201
6.21239
0.432654
6.29251
0.464243
6.36901
0.49759
6.44258
0.53218
6.51439
0.567426
6.58606
0.602781
6.65999
0.63783
6.73953
0.672419
6.82949
0.706935
6.93681
0.742545
7.07164
0.78164
7.24871
0.828394
7.48797
0.889413
7.80753
0.972641
8.18077
1.07716
8.43021
1.15406
8.34375
1.09544
8.09565
0.934736
7.89856
0.792894
7.7576
0.684247
7.64583
0.593584
7.55221
0.513577
7.47303
0.441787
7.40651
0.377455
7.35125
0.320409
7.30582
0.270671
7.2687
0.228318
7.23826
0.193294
7.21292
0.16544
7.19115
0.144386
7.17151
0.129532
7.15283
0.120117
7.13414
0.115226
7.11476
0.113922
7.09426
0.115299
7.07236
0.118545
7.04899
0.123058
7.02411
0.128391
6.99772
0.134208
6.96979
0.140284
6.94032
0.146441
6.90932
0.15248
6.87681
0.158156
6.84289
0.163161
6.80776
0.167123
6.77168
0.169635
6.73507
0.170291
6.69842
0.168714
6.6623
0.164584
6.62737
0.157661
6.59428
0.147784
6.56369
0.134862
6.53625
0.118869
6.51257
0.0998215
6.49325
0.0777306
6.47885
0.0525828
6.46993
0.0243254
6.46706
-0.00715624
6.47079
-0.0420548
6.48176
-0.0806387
6.50066
-0.123264
6.52826
-0.1704
6.5654
-0.222647
6.61307
-0.280726
6.67242
-0.3455
6.74478
-0.418007
6.83172
-0.499484
6.93511
-0.591369
7.05718
-0.69532
7.20059
-0.813228
7.36854
-0.947211
7.56491
-1.09956
7.7944
-1.27267
8.06279
-1.46886
8.3771
-1.69007
8.74586
-1.93725
9.17919
-2.20923
9.68824
-2.50085
10.2833
-2.79958
10.9687
-3.08038
11.7318
-3.29933
12.5259
-3.39189
13.2567
-3.29388
13.8154
-3.01862
14.1996
-2.76539
14.4652
-2.6862
14.6866
-2.87456
14.9539
-3.40977
15.4055
-4.40179
16.3121
-6.03594
18.2709
-8.62241
22.6128
-12.5777
31.8259
-17.7064
28.6608
-30.4779
27.7672
-9.29732
27.3256
0.280991
27.3996
1.89647
27.8975
5.72818
29.1037
12.7205
22.2594
12.318
21.5311
4.88954
22.0039
2.83232
22.5879
2.82405
22.6641
4.40733
20.1028
8.9974
17.8244
9.87274
14.6368
11.7786
11.6121
11.9265
9.03493
11.3017
6.84952
10.5243
4.94012
9.83402
3.20815
9.30541
1.58014
8.95443
8.7803
1.02066
5.59007
1.87059
5.35385
2.49574
4.95654
2.91876
4.48546
3.18933
4.00453
3.35607
3.54959
3.4571
3.13601
3.51946
2.76729
3.56143
2.44119
3.59503
2.15327
3.62819
1.89871
3.66605
1.67318
3.71175
1.47288
3.76697
1.29458
3.83244
1.13562
3.90831
0.993921
3.9943
0.867869
4.08985
0.756261
4.19415
0.658219
4.30617
0.573126
4.42473
0.500541
4.54848
0.440123
4.67596
0.391553
4.80561
0.35444
4.93586
0.328242
5.06522
0.312197
5.19237
0.305297
5.3163
0.306357
5.43632
0.314083
5.55206
0.32722
5.66345
0.34471
5.77055
0.365784
5.8735
0.390029
5.97239
0.417341
6.06719
0.447779
6.15777
0.481426
6.24398
0.518268
6.32586
0.558094
6.4036
0.600427
6.47783
0.644599
6.54975
0.689834
6.62111
0.735362
6.69458
0.780638
6.77405
0.825523
6.8651
0.870547
6.97591
0.917237
7.11839
0.968661
7.30973
1.0301
7.5712
1.10938
7.91205
1.2133
8.25767
1.32563
8.37159
1.35617
8.18304
1.22554
7.95381
1.05001
7.78992
0.909125
7.66693
0.793516
7.56582
0.691238
7.48042
0.598186
7.4087
0.513346
7.34946
0.436646
7.30152
0.368349
7.26346
0.308755
7.23367
0.25812
7.2104
0.216575
7.19186
0.183996
7.17629
0.159965
7.16209
0.143738
7.14794
0.134273
7.13284
0.130349
7.11614
0.130645
7.0975
0.13392
7.07687
0.139176
7.05432
0.145644
7.02993
0.152796
7.0038
0.160348
6.97595
0.168139
6.94636
0.176032
6.915
0.183857
6.88182
0.191352
6.84686
0.198128
6.81027
0.20371
6.77234
0.207563
6.73349
0.209136
6.69429
0.207917
6.65538
0.203489
6.61749
0.195544
6.58136
0.1839
6.5477
0.168493
6.5172
0.149351
6.49048
0.126534
6.4681
0.100104
6.4506
0.0700925
6.43845
0.0364716
6.43216
-0.000868103
6.4322
-0.0421231
6.43913
-0.0875838
6.45353
-0.137659
6.47601
-0.192895
6.50732
-0.253968
6.54829
-0.321702
6.59991
-0.397103
6.6633
-0.48139
6.73983
-0.576017
6.83116
-0.682693
6.93927
-0.80343
7.06661
-0.940569
7.21619
-1.0968
7.3918
-1.27517
7.59822
-1.47907
7.84158
-1.71221
8.12992
-1.97841
8.47387
-2.28119
8.88757
-2.6229
9.38951
-3.00277
10.0025
-3.41258
10.7497
-3.82758
11.6393
-4.18884
12.6239
-4.37653
13.5319
-4.20194
14.0686
-3.55527
14.2788
-2.97556
14.2769
-2.68428
14.1514
-2.74906
13.9619
-3.2203
13.7714
-4.21133
13.7257
-5.99019
14.3155
-9.21226
17.4841
-15.7464
19.0544
-20.8313
49.8414
-41.6617
37.3455
-32.9979
28.9411
-6.46866
31.2314
14.1894
34.8899
17.7902
28.7012
8.62252
14.8309
2.21306
19.4738
3.04859
21.9956
3.77137
24.1711
7.27286
27.2541
14.6168
20.9781
15.2734
19.7303
11.1206
14.7847
16.7242
10.9874
15.7237
8.25749
14.0316
6.15928
12.6225
4.41151
11.5818
2.85716
10.8598
1.406
10.4056
10.1863
0.784435
5.26658
1.47328
5.10469
2.02466
4.8187
2.43783
4.45862
2.73438
4.068
2.94249
3.67703
3.08839
3.30332
3.19336
2.95542
3.2735
2.63632
3.34048
2.34594
3.40265
2.08285
3.46575
1.84502
3.53344
1.6302
3.60801
1.43627
3.69074
1.26135
3.78226
1.1039
3.8827
0.962726
3.99181
0.836911
4.10905
0.725835
4.23358
0.629104
4.36432
0.546495
4.49991
0.477872
4.63885
0.423104
4.77941
0.381938
4.91981
0.353866
5.05832
0.338047
5.19343
0.33326
5.32402
0.337929
5.44945
0.350284
5.56955
0.368594
5.68452
0.391415
5.7948
0.417797
5.90081
0.447367
6.00283
0.480227
6.10083
0.516754
6.19461
0.557364
6.28381
0.602251
6.36819
0.651268
6.44777
0.703828
6.52306
0.759041
6.59528
0.815855
6.66639
0.873239
6.73947
0.93048
6.81907
0.987451
6.91179
1.04491
7.02733
1.10493
7.17984
1.17151
7.38901
1.25132
7.67511
1.35295
8.02437
1.47684
8.28822
1.57397
8.24096
1.52125
8.00752
1.33698
7.81292
1.16201
7.67431
1.02031
7.56466
0.895882
7.47277
0.781332
7.39558
0.674966
7.332
0.576821
7.28117
0.487473
7.24192
0.407594
7.21283
0.33786
7.19213
0.278839
7.17783
0.230876
7.16783
0.193994
7.16006
0.167738
7.15263
0.151165
7.14401
0.142908
7.13313
0.141239
7.11942
0.144344
7.10276
0.150588
7.08334
0.158622
7.06147
0.167513
7.03748
0.176782
7.01159
0.186248
6.98384
0.195881
6.95419
0.205688
6.92249
0.215574
6.88859
0.225255
6.85244
0.234276
6.81412
0.242025
6.77391
0.247775
6.73228
0.250775
6.68986
0.250338
6.64743
0.245911
6.60584
0.237114
6.56595
0.22377
6.52856
0.205874
6.49438
0.183525
6.46405
0.156872
6.43809
0.126068
6.41697
0.0912131
6.40111
0.0523258
6.3909
0.00932336
6.38674
-0.0379829
6.38906
-0.0899068
6.39829
-0.146902
6.41494
-0.209562
6.43959
-0.278623
6.47289
-0.354999
6.51562
-0.439815
6.56868
-0.534436
6.63316
-0.640498
6.71042
-0.759956
6.80213
-0.895144
6.91038
-1.04882
7.03783
-1.22424
7.18789
-1.42522
7.36507
-1.65623
7.57538
-1.92252
7.82714
-2.23017
8.13216
-2.58619
8.5077
-2.99842
8.9797
-3.47476
9.58752
-4.0204
10.3885
-4.62853
11.4516
-5.25191
12.7985
-5.72345
14.1786
-5.58207
14.6483
-4.02495
14.5701
-2.89732
14.2121
-2.32629
13.6801
-2.21714
12.9708
-2.51101
11.9925
-3.23303
10.5036
-4.50125
7.78142
-6.49011
12.3992
-9.13704
-1.77598
-15.032
58.5052
-6.73061
63.8748
-13.1337
49.5991
1.48025
34.8322
11.2641
25.7222
17.1643
22.2917
22.8831
15.6664
25.395
20.1966
29.2011
25.4971
29.7832
31.5151
19.5322
27.9107
13.8603
16.8253
12.8195
25.3338
30.0166
13.7842
28.2738
9.29523
20.2127
6.84838
16.4784
5.1186
14.3522
3.68948
13.0109
2.40299
12.1462
1.18672
11.6219
11.373
0.622552
5.05169
1.18728
4.93231
1.66459
4.71454
2.04721
4.42853
2.34341
4.10383
2.56878
3.76407
2.74049
3.4257
2.87426
3.09903
2.98312
2.78982
3.07739
2.50094
3.16482
2.23336
3.25093
1.98688
3.33951
1.76071
3.43309
1.55378
3.5333
1.36505
3.64108
1.19358
3.75688
1.03858
3.88074
0.899539
4.01232
0.776127
4.15097
0.66825
4.29569
0.575986
4.44515
0.49952
4.59768
0.439024
4.75134
0.394494
4.904
0.365582
5.05353
0.351413
5.1981
0.350501
5.33638
0.360757
5.46776
0.37969
5.59237
0.404818
5.7109
0.434138
5.82437
0.466467
5.93367
0.501551
6.03936
0.539909
6.14144
0.582492
6.2395
0.63029
6.33282
0.683868
6.42075
0.7432
6.50298
0.807586
6.57988
0.875775
6.65266
0.946256
6.72363
1.01764
6.79644
1.08906
6.87653
1.16051
6.97181
1.23313
7.09392
1.30979
7.25965
1.39578
7.49063
1.4992
7.79901
1.62702
8.1215
1.76034
8.2355
1.79651
8.05669
1.64697
7.83255
1.44331
7.67121
1.27365
7.54988
1.12741
7.4501
0.992064
7.36641
0.864202
7.29744
0.743747
7.24265
0.631589
7.20129
0.528846
7.17219
0.436684
7.15381
0.356236
7.14416
0.288475
7.14094
0.234116
7.14158
0.193374
7.14349
0.165823
7.14437
0.150314
7.14234
0.144948
7.13624
0.147333
7.12566
0.154952
7.11079
0.165481
7.09223
0.177165
7.07074
0.188992
7.04695
0.200571
7.02122
0.211957
6.99365
0.223442
6.96407
0.235275
6.93217
0.24748
6.89761
0.259807
6.86019
0.271705
6.81987
0.282348
6.77691
0.290742
6.73184
0.295858
6.68543
0.296752
6.63863
0.292688
6.5925
0.283223
6.54805
0.268208
6.50621
0.247727
6.46773
0.222012
6.43325
0.191368
6.40324
0.156082
6.37809
0.116357
6.35811
0.0722832
6.3436
0.0238196
6.33482
-0.0292173
6.33206
-0.0871614
6.33563
-0.150491
6.34588
-0.219828
6.36321
-0.295955
6.38808
-0.379851
6.421
-0.472725
6.46261
-0.576042
6.5137
-0.691581
6.57523
-0.821493
6.64845
-0.968375
6.73496
-1.13534
6.83685
-1.32612
6.95688
-1.54523
7.09878
-1.79812
7.26773
-2.09146
7.47112
-2.43355
7.71993
-2.835
8.03136
-3.30983
8.43406
-3.87746
8.97939
-4.56573
9.76511
-5.41424
10.98
-6.46683
12.9399
-7.6833
15.7357
-8.37794
15.7759
-4.06515
15.1411
-2.26246
14.3212
-1.50645
13.3863
-1.28217
12.2488
-1.37357
10.7243
-1.70851
8.51473
-2.29168
5.13449
-3.1099
6.50419
-4.57556
6.5254
-7.1593
52.102
-4.14711
78.4888
9.96491
59.383
20.5861
40.7323
29.9149
31.441
42.0153
24.8036
50.9726
19.4725
55.491
20.7788
56.4114
15.2461
50.7055
25.8431
42.7759
26.8699
41.7197
34.0225
54.9712
23.591
49.5473
5.72318
24.6035
5.56094
20.3749
4.72218
17.3172
3.77727
15.2971
2.82483
13.9633
1.8786
13.0925
0.937891
12.5626
12.3109
0.503174
4.91409
0.969512
4.82035
1.37857
4.64552
1.72251
4.40882
2.00365
4.13073
2.23041
3.82948
2.41382
3.51944
2.56505
3.21105
2.69424
2.91145
2.80981
2.6252
2.91835
2.35488
3.02475
2.1017
3.13258
1.86607
3.24436
1.64789
3.36182
1.44686
3.48609
1.26258
3.61784
1.09471
3.75732
0.943096
3.90445
0.807748
4.05871
0.688921
4.21923
0.587083
4.38465
0.502854
4.55315
0.436855
4.72243
0.389525
4.88983
0.360846
5.05262
0.35005
5.20835
0.355359
5.35531
0.373923
5.49289
0.402145
5.62169
0.436357
5.74323
0.473649
5.85945
0.512498
5.97203
0.552919
6.08194
0.596214
6.18924
0.644345
6.29308
0.699248
6.39216
0.762156
6.48513
0.833238
6.57117
0.911538
6.65036
0.99525
6.72404
1.08219
6.79504
1.17048
6.86789
1.25907
6.94915
1.34821
7.04847
1.43979
7.17991
1.53792
7.36306
1.64951
7.61845
1.78322
7.93233
1.93583
8.15767
2.04178
8.08595
1.96438
7.85304
1.75181
7.66289
1.55372
7.52497
1.38597
7.41454
1.23118
7.32224
1.08278
7.24595
0.940131
7.18528
0.804349
7.13991
0.676978
7.10912
0.559651
7.09174
0.454071
7.08605
0.361917
7.08981
0.28474
7.1002
0.223745
7.11403
0.179549
7.12798
0.151879
7.13901
0.139293
7.14473
0.139217
7.14386
0.148238
7.13619
0.162642
7.12248
0.179172
7.10406
0.195575
7.08232
0.210728
7.05834
0.224525
7.0327
0.237569
7.00548
0.250673
6.97628
0.264478
6.9445
0.279258
6.90951
0.294805
6.87083
0.310401
6.82827
0.324923
6.78203
0.336997
6.73273
0.345164
6.68136
0.348106
6.62917
0.344855
6.57749
0.334893
6.52757
0.31813
6.48049
0.29482
6.43709
0.265434
6.39796
0.230509
6.36351
0.190528
6.33401
0.145842
6.30965
0.0966331
6.29056
0.0428995
6.27688
-0.0155425
6.26873
-0.0790382
6.2663
-0.148077
6.26975
-0.223298
6.27931
-0.305512
6.2952
-0.395729
6.31768
-0.495194
6.34708
-0.605427
6.38379
-0.728293
6.42835
-0.866071
6.48149
-1.02153
6.54418
-1.19803
6.61774
-1.39967
6.70399
-1.63146
6.80544
-1.89956
6.92564
-2.21167
7.06968
-2.5776
7.2451
-3.01042
7.46373
-3.52847
7.74579
-4.15954
8.13089
-4.95084
8.71252
-5.99587
9.76355
-7.51787
12.2452
-10.165
20.0485
-16.1813
17.5786
-17.5378
15.8971
-8.3855
14.5455
-3.02453
13.2949
-0.48589
11.9139
0.109832
10.1411
0.80487
7.69651
1.75741
3.66884
0.917756
3.92045
-1.23945
9.5376
-2.75732
66.214
25.2746
89.11
45.8695
68.7118
40.9845
52.8327
45.7942
40.3984
54.4498
29.322
62.0491
20.3929
64.4201
15.0729
61.7313
7.31649
58.4619
24.7869
63.7657
40.1214
64.9549
28.5986
55.9409
-1.35277
30.3215
1.49462
23.0142
2.50318
19.3664
2.70213
17.1182
2.44348
15.5558
1.95396
14.4529
1.34868
13.6978
0.686241
13.225
12.9971
0.409427
4.83679
0.794683
4.75884
1.14187
4.61117
1.44443
4.40674
1.7024
4.16031
1.92037
3.88616
2.10543
3.59667
2.26546
3.30191
2.40799
3.00952
2.53948
2.72492
2.66517
2.45179
2.78912
2.19242
2.91441
1.94815
3.04333
1.71966
3.17754
1.50722
3.31823
1.3109
3.46622
1.13072
3.62198
0.96685
3.78562
0.819625
3.95687
0.689676
4.135
0.577927
4.31865
0.485563
4.50582
0.413876
4.69375
0.364019
4.87903
0.33662
5.05793
0.331251
5.22692
0.34589
5.38354
0.376651
5.5271
0.418138
5.65898
0.464681
5.78208
0.511835
5.89987
0.557571
6.01533
0.602469
6.13007
0.649211
6.24415
0.701504
6.35598
0.762916
6.46324
0.835751
6.56343
0.92045
6.65488
1.01559
6.7373
1.11842
6.81233
1.22573
6.88364
1.33485
6.95703
1.44459
7.04073
1.55583
7.1466
1.67181
7.29151
1.79854
7.49677
1.9444
7.77107
2.1129
8.03828
2.26642
8.08027
2.27195
7.87339
2.08076
7.65494
1.85939
7.49514
1.67135
7.37018
1.49931
7.26614
1.33235
7.1796
1.16866
7.11017
1.00942
7.05791
0.856586
7.02258
0.712277
7.00354
0.578679
6.99959
0.458025
7.00887
0.352638
7.02881
0.264813
7.05601
0.196562
7.08636
0.14921
7.1154
0.12283
7.13893
0.115761
7.15375
0.124428
7.15826
0.143734
7.15272
0.168163
7.13888
0.193012
7.11921
0.215244
7.09612
0.233785
7.07138
0.249241
7.04581
0.263145
7.01929
0.27719
6.99106
0.292701
6.96004
0.310295
6.92511
0.329764
6.88535
0.350166
6.84034
0.369956
6.7902
0.387161
6.73567
0.399673
6.67811
0.405635
6.61921
0.403741
6.56072
0.393378
6.50426
0.374604
6.45111
0.347994
6.40216
0.314396
6.35798
0.274701
6.31883
0.229673
6.2848
0.179855
6.25591
0.125521
6.23212
0.066694
6.21338
0.00318119
6.19969
-0.0653758
6.19108
-0.139478
6.18754
-0.219773
6.1891
-0.307069
6.19574
-0.402365
6.20745
-0.506894
6.22421
-0.622181
6.24601
-0.750103
6.2729
-0.892974
6.30499
-1.05363
6.34254
-1.23557
6.38595
-1.44307
6.43588
-1.68139
6.49334
-1.95703
6.55971
-2.27805
6.63685
-2.65475
6.72705
-3.10064
6.83266
-3.63409
6.95449
-4.28138
7.08586
-5.08221
7.19051
-6.10053
7.11645
-7.44382
6.22893
-9.27746
18.692
-11.6526
26.7309
-22.5094
21.2581
-22.8004
17.0842
-13.5704
13.8906
-3.32793
12.6089
4.11098
11.0937
5.42652
6.85686
1.85026
1.51163
0.0581993
2.40258
0.990387
37.5695
1.56964
86.809
35.2594
84.2249
48.4537
73.5215
51.6881
61.4883
57.8276
47.9977
67.9404
31.693
78.3538
17.704
78.4091
11.8035
67.6316
12.6204
57.6449
25.9761
50.4099
31.1074
39.6197
2.97912
18.6926
-8.66006
10.7968
-2.1532
16.5073
0.255059
16.9581
1.13966
16.2336
1.34059
15.3548
1.19884
14.5946
0.875906
14.0207
0.458401
13.6425
13.4555
0.331477
4.81057
0.647013
4.74218
0.937435
4.61112
1.19801
4.42672
1.42824
4.20019
1.63088
3.94314
1.81067
3.66648
1.97306
3.37973
2.1234
3.09063
2.26635
2.8052
2.4058
2.52786
2.54485
2.2617
2.68592
2.00875
2.83089
1.77021
2.98121
1.54677
3.13806
1.33878
3.30234
1.14654
3.47475
0.970406
3.65567
0.811004
3.84513
0.669319
4.04263
0.546787
4.24696
0.445287
4.45596
0.367044
4.66635
0.314345
4.87366
0.288982
5.07257
0.291403
5.25768
0.319619
5.42502
0.368349
5.57365
0.429171
5.70614
0.49291
5.82782
0.552441
5.94477
0.604977
6.06207
0.652212
6.18236
0.699275
6.30556
0.752921
6.42882
0.819413
6.54794
0.902738
6.65857
1.00364
6.75771
1.1199
6.84461
1.2472
6.92145
1.38053
6.99338
1.51594
7.06827
1.65225
7.15671
1.79176
7.27332
1.94014
7.43737
2.10563
7.66527
2.29417
7.92458
2.48333
8.04381
2.56116
7.88907
2.41667
7.65202
2.18566
7.4669
1.98192
7.3231
1.79666
7.20322
1.61451
7.10245
1.43204
7.02036
1.2505
6.95733
1.07237
6.9136
0.900303
6.88898
0.736897
6.88289
0.584776
6.8942
0.44672
6.92104
0.325797
6.96056
0.225303
7.00865
0.148477
7.05998
0.0978832
7.10833
0.0744743
7.1476
0.0765167
7.17306
0.0989693
7.18269
0.134083
7.17757
0.173301
7.16111
0.209478
7.13775
0.23857
7.11158
0.259943
7.08528
0.275537
7.05985
0.288563
7.0348
0.302242
7.00865
0.318872
6.97951
0.339458
6.94551
0.363779
6.90514
0.390553
6.85755
0.41758
6.80271
0.441992
6.74164
0.460712
6.67622
0.471028
6.60884
0.471111
6.54195
0.460278
6.47765
0.438918
6.41751
0.408159
6.36247
0.369452
6.31295
0.324219
6.26901
0.273615
6.23047
0.218395
6.19709
0.15891
6.1686
0.095171
6.14482
0.0269447
6.12559
-0.0461673
6.11078
-0.124687
6.10024
-0.209251
6.0938
-0.300629
6.09121
-0.399768
6.09216
-0.507841
6.09629
-0.626304
6.10314
-0.756969
6.11224
-0.902086
6.12306
-1.06445
6.13504
-1.24755
6.14762
-1.45565
6.16025
-1.69403
6.17232
-1.9691
6.18301
-2.28874
6.19097
-2.66272
6.19359
-3.10329
6.18537
-3.62589
6.15366
-4.24968
6.06754
-4.99611
5.84723
-5.88022
5.28281
-6.8794
3.85383
-7.84849
7.83517
-8.41279
26.4399
-13.1043
30.4881
-10.319
27.3266
-1.36666
21.3295
-0.560895
13.9245
3.58407
7.51741
8.8269
5.0648
16.5311
2.44382
25.6086
2.98183
39.8247
71.2593
66.7467
100.003
75.1134
87.4594
60.9977
79.661
59.4867
71.601
65.8876
58.4111
81.1303
31.7484
105.016
6.92653
103.231
1.81679
72.7413
5.38535
54.0763
15.1859
40.6093
10.1804
27.5399
-4.91668
15.1817
-2.94963
13.7023
-1.7024
15.26
-0.469406
15.7251
0.260891
15.5033
0.580359
15.0354
0.624893
14.5501
0.497708
14.1478
0.271468
13.8687
13.727
0.263085
4.83095
0.515961
4.76782
0.753035
4.64584
0.971474
4.47219
1.17119
4.25595
1.35423
4.0071
1.52391
3.73556
1.68397
3.45046
1.83797
3.15974
1.98901
2.86992
2.13964
2.58602
2.29189
2.31169
2.44739
2.04938
2.60744
1.80061
2.77323
1.56622
2.94581
1.3467
3.12621
1.1424
3.31535
0.95376
3.51398
0.781546
3.72259
0.627036
3.94113
0.492179
4.16872
0.379676
4.40327
0.292978
4.64099
0.236047
4.87609
0.212683
5.10078
0.225339
5.30641
0.27292
5.48585
0.348541
5.63738
0.438436
5.76567
0.527088
5.88035
0.602393
5.99201
0.660656
6.10913
0.705855
6.23601
0.747363
6.37205
0.797048
6.51215
0.865752
6.64884
0.960183
6.77483
1.08137
6.88502
1.22555
6.97793
1.38573
7.05686
1.55373
7.1297
1.72329
7.20778
1.89368
7.30509
2.0701
7.43882
2.26184
7.62591
2.47639
7.85443
2.69765
8.00241
2.83015
7.89932
2.74059
7.65806
2.52022
7.44828
2.31231
7.28165
2.12179
7.14094
1.93033
7.02075
1.73301
6.92092
1.53148
6.84223
1.32907
6.78526
1.12931
6.75019
0.935384
6.73686
0.750228
6.74483
0.57678
6.77328
0.418269
6.82055
0.278526
6.88373
0.162123
6.95806
0.0741433
7.03657
0.0193693
7.11037
0.000671147
7.17005
0.0168304
7.20817
0.0608364
7.22191
0.120366
7.21375
0.181479
7.1902
0.232998
7.15913
0.269633
7.12717
0.291903
7.09831
0.304384
7.07353
0.313333
7.05143
0.324375
7.02924
0.341087
7.00383
0.364868
6.97228
0.395348
6.93217
0.430694
6.88196
0.467791
6.82143
0.502493
6.75195
0.530169
6.6763
0.54667
6.59801
0.549398
6.52059
0.537707
6.44689
0.512635
6.3788
0.476264
6.31724
0.431019
6.26235
0.379108
6.21379
0.32218
6.17099
0.261205
6.13335
0.196548
6.10038
0.128129
6.07171
0.0555933
6.04707