/*--------------------------------*- C++ -*----------------------------------*\
| =========                 |                                                 |
| \\      /  F ield         | OpenFOAM: The Open Source CFD Toolbox           |
|  \\    /   O peration     | Version:  2.1.0                                 |
|   \\  /    A nd           | Web:      www.OpenFOAM.org                      |
|    \\/     M anipulation  |                                                 |
\*---------------------------------------------------------------------------*/
FoamFile
{
    version     2.0;
    format      ascii;
    class       volScalarField;
    location    "8030";
    object      po;
}
// * * * * * * * * * * * * * * * * * * * * * * * * * * * * * * * * * * * * * //

dimensions      [1 -1 -2 0 0 0 0];

internalField   nonuniform List<scalar> 
15000
(
6921.72
6903.13
6891.78
6883.53
6876.78
6870.87
6865.49
6860.48
6855.73
6851.16
6846.74
6842.41
6838.15
6833.92
6829.7
6825.48
6821.23
6816.93
6812.58
6808.16
6803.67
6799.08
6794.4
6789.63
6784.75
6779.76
6774.67
6769.47
6764.16
6758.74
6753.23
6747.61
6741.89
6736.08
6730.18
6724.19
6718.12
6711.96
6705.73
6699.43
6693.05
6686.59
6680.07
6673.47
6666.79
6660.02
6653.15
6646.15
6639.01
6631.68
6624.1
6616.21
6607.94
6599.36
6590.82
6582.58
6574.6
6566.78
6559.08
6551.47
6543.95
6536.5
6529.11
6521.77
6514.47
6507.22
6499.99
6492.8
6485.63
6478.49
6471.37
6464.28
6457.22
6450.18
6443.16
6436.18
6429.22
6422.29
6415.39
6408.52
6401.68
6394.88
6388.11
6381.37
6374.66
6367.98
6361.33
6354.71
6348.12
6341.54
6334.99
6328.44
6321.91
6315.37
6308.83
6302.28
6295.71
6289.12
6282.48
6275.79
6269.05
6262.22
6255.31
6248.28
6241.13
6233.83
6226.35
6218.67
6210.76
6202.57
6194.07
6185.22
6175.98
6166.29
6156.11
6145.39
6134.1
6122.2
6109.69
6096.54
6082.76
6068.31
6053.16
6037.23
6020.38
6002.46
5983.28
5962.69
5940.65
5917.32
5893.03
5868.17
5843.07
5818.02
5793.28
5769.13
5745.8
5723.4
5702.01
5681.73
5662.76
5645.32
5629.64
5615.88
5604.14
5594.46
5586.8
5581.12
5577.37
5575.51
6903.09
6895.74
6888.18
6881.42
6875.35
6869.82
6864.67
6859.82
6855.18
6850.7
6846.35
6842.07
6837.85
6833.67
6829.48
6825.29
6821.06
6816.79
6812.46
6808.05
6803.57
6798.99
6794.33
6789.56
6784.68
6779.7
6774.61
6769.41
6764.1
6758.69
6753.17
6747.55
6741.83
6736.01
6730.11
6724.11
6718.03
6711.87
6705.64
6699.32
6692.94
6686.48
6679.95
6673.35
6666.66
6659.89
6653.01
6646.01
6638.86
6631.51
6623.91
6615.98
6607.66
6599.08
6590.6
6582.42
6574.47
6566.67
6558.98
6551.39
6543.88
6536.44
6529.06
6521.72
6514.43
6507.18
6499.96
6492.77
6485.6
6478.46
6471.35
6464.26
6457.19
6450.15
6443.14
6436.15
6429.19
6422.26
6415.36
6408.49
6401.65
6394.85
6388.07
6381.34
6374.63
6367.95
6361.31
6354.69
6348.1
6341.53
6334.97
6328.43
6321.9
6315.38
6308.85
6302.3
6295.74
6289.15
6282.53
6275.86
6269.12
6262.31
6255.42
6248.41
6241.28
6234.01
6226.56
6218.91
6211.03
6202.88
6194.42
6185.62
6176.42
6166.78
6156.64
6145.96
6134.7
6122.82
6110.32
6097.18
6083.42
6069.02
6053.95
6038.14
6021.46
6003.72
5984.69
5964.14
5941.95
5918.26
5893.6
5868.41
5843.02
5817.7
5792.69
5768.32
5744.87
5722.39
5700.89
5680.43
5661.23
5643.57
5627.71
5613.86
5602.09
5592.43
5584.82
5579.2
5575.49
5573.65
6891.67
6888.12
6883.19
6877.97
6872.83
6867.88
6863.12
6858.55
6854.12
6849.81
6845.58
6841.41
6837.28
6833.17
6829.05
6824.91
6820.73
6816.5
6812.2
6807.83
6803.37
6798.82
6794.17
6789.42
6784.55
6779.58
6774.49
6769.29
6763.98
6758.57
6753.04
6747.42
6741.69
6735.87
6729.96
6723.95
6717.86
6711.69
6705.44
6699.12
6692.72
6686.25
6679.71
6673.09
6666.4
6659.61
6652.72
6645.71
6638.54
6631.16
6623.51
6615.51
6607.13
6598.58
6590.21
6582.12
6574.21
6566.45
6558.79
6551.23
6543.74
6536.32
6528.96
6521.64
6514.36
6507.12
6499.9
6492.72
6485.55
6478.42
6471.3
6464.21
6457.14
6450.1
6443.08
6436.09
6429.13
6422.2
6415.3
6408.42
6401.59
6394.78
6388.01
6381.27
6374.57
6367.89
6361.25
6354.64
6348.05
6341.49
6334.95
6328.42
6321.9
6315.38
6308.87
6302.34
6295.8
6289.23
6282.63
6275.98
6269.27
6262.49
6255.63
6248.67
6241.58
6234.35
6226.96
6219.37
6211.56
6203.49
6195.13
6186.41
6177.31
6167.77
6157.72
6147.12
6135.91
6124.07
6111.58
6098.45
6084.71
6070.39
6055.48
6039.92
6023.59
6006.27
5987.62
5967.24
5944.74
5920.19
5894.71
5868.86
5842.92
5817.05
5791.48
5766.58
5742.96
5720.42
5698.72
5677.87
5658.15
5640.01
5623.79
5609.74
5597.94
5588.35
5580.86
5575.35
5571.74
5569.94
6883.33
6881.25
6877.87
6873.85
6869.59
6865.28
6860.99
6856.77
6852.62
6848.52
6844.47
6840.45
6836.45
6832.44
6828.42
6824.36
6820.25
6816.08
6811.83
6807.51
6803.09
6798.57
6793.95
6789.21
6784.36
6779.4
6774.32
6769.12
6763.81
6758.39
6752.86
6747.23
6741.49
6735.66
6729.73
6723.71
6717.6
6711.41
6705.15
6698.8
6692.39
6685.9
6679.34
6672.71
6665.99
6659.19
6652.28
6645.24
6638.04
6630.62
6622.9
6614.81
6606.38
6597.91
6589.68
6581.68
6573.84
6566.13
6558.52
6550.99
6543.54
6536.15
6528.81
6521.51
6514.25
6507.02
6499.82
6492.64
6485.48
6478.34
6471.23
6464.14
6457.07
6450.02
6443
6436.01
6429.04
6422.11
6415.2
6408.33
6401.49
6394.68
6387.91
6381.17
6374.47
6367.8
6361.17
6354.56
6347.99
6341.44
6334.91
6328.39
6321.89
6315.39
6308.9
6302.4
6295.88
6289.34
6282.77
6276.16
6269.49
6262.76
6255.95
6249.04
6242.02
6234.87
6227.56
6220.06
6212.36
6204.41
6196.17
6187.6
6178.65
6169.25
6159.35
6148.88
6137.77
6125.97
6113.48
6100.33
6086.59
6072.35
6057.66
6042.48
6026.72
6010.13
5992.29
5972.44
5949.57
5923.05
5896.18
5869.4
5842.73
5816.11
5789.58
5763.56
5739.99
5717.6
5695.7
5674.19
5653.48
5634.53
5617.7
5603.38
5591.59
5582.17
5574.9
5569.61
5566.16
5564.45
6876.45
6875.05
6872.59
6869.46
6865.94
6862.22
6858.42
6854.58
6850.73
6846.89
6843.06
6839.22
6835.37
6831.5
6827.6
6823.64
6819.62
6815.53
6811.36
6807.09
6802.72
6798.25
6793.66
6788.95
6784.12
6779.17
6774.09
6768.9
6763.59
6758.16
6752.62
6746.98
6741.22
6735.37
6729.43
6723.39
6717.26
6711.04
6704.75
6698.38
6691.94
6685.43
6678.84
6672.18
6665.44
6658.61
6651.67
6644.6
6637.35
6629.87
6622.06
6613.88
6605.45
6597.1
6589.01
6581.11
6573.35
6565.71
6558.15
6550.68
6543.27
6535.92
6528.62
6521.35
6514.11
6506.9
6499.71
6492.53
6485.38
6478.25
6471.13
6464.04
6456.97
6449.92
6442.89
6435.9
6428.93
6421.99
6415.08
6408.2
6401.36
6394.55
6387.78
6381.04
6374.34
6367.68
6361.05
6354.46
6347.9
6341.36
6334.85
6328.35
6321.87
6315.4
6308.94
6302.47
6295.99
6289.48
6282.96
6276.39
6269.78
6263.11
6256.36
6249.53
6242.59
6235.54
6228.34
6220.97
6213.4
6205.61
6197.55
6189.17
6180.42
6171.24
6161.55
6151.27
6140.3
6128.57
6116.05
6102.79
6088.97
6074.77
6060.31
6045.62
6030.67
6015.26
5998.95
5980.68
5958.07
5926.24
5897.58
5869.81
5842.49
5815.09
5787.19
5758.09
5735.83
5714.3
5692.29
5669.7
5647.04
5626.94
5609.11
5594.48
5582.86
5573.83
5566.98
5562.04
5558.83
5557.25
6870.36
6869.34
6867.47
6864.98
6862.06
6858.87
6855.51
6852.06
6848.54
6844.98
6841.38
6837.75
6834.09
6830.37
6826.61
6822.77
6818.87
6814.87
6810.78
6806.59
6802.28
6797.86
6793.31
6788.63
6783.83
6778.89
6773.83
6768.63
6763.32
6757.88
6752.33
6746.67
6740.9
6735.02
6729.05
6722.98
6716.82
6710.58
6704.25
6697.85
6691.37
6684.82
6678.2
6671.51
6664.73
6657.87
6650.89
6643.77
6636.46
6628.89
6620.98
6612.72
6604.35
6596.17
6588.21
6580.43
6572.76
6565.19
6557.71
6550.3
6542.95
6535.65
6528.39
6521.16
6513.94
6506.75
6499.58
6492.41
6485.27
6478.13
6471.02
6463.92
6456.84
6449.79
6442.76
6435.76
6428.78
6421.83
6414.92
6408.04
6401.19
6394.38
6387.61
6380.87
6374.18
6367.52
6360.91
6354.32
6347.78
6341.26
6334.77
6328.3
6321.85
6315.41
6308.98
6302.55
6296.11
6289.65
6283.18
6276.67
6270.12
6263.52
6256.86
6250.12
6243.29
6236.35
6229.28
6222.07
6214.68
6207.08
6199.24
6191.11
6182.63
6173.74
6164.35
6154.35
6143.6
6131.96
6119.34
6105.81
6091.74
6077.46
6063.18
6049.03
6035.07
6021.3
6007.57
5993.26
5975.77
5956.72
5906.88
5869.53
5840.59
5809.36
5774.47
5745.77
5730.94
5711.46
5689.47
5665.3
5638.04
5617.06
5597.33
5582.55
5571.56
5563.3
5557.15
5552.73
5549.88
5548.47
6864.77
6863.99
6862.52
6860.49
6858.05
6855.32
6852.38
6849.29
6846.1
6842.82
6839.48
6836.08
6832.61
6829.08
6825.47
6821.78
6818
6814.12
6810.12
6806.01
6801.78
6797.42
6792.92
6788.28
6783.5
6778.58
6773.52
6768.33
6763
6757.55
6751.98
6746.3
6740.5
6734.6
6728.6
6722.5
6716.31
6710.02
6703.65
6697.21
6690.68
6684.09
6677.42
6670.68
6663.86
6656.95
6649.92
6642.74
6635.35
6627.68
6619.66
6611.37
6603.13
6595.12
6587.31
6579.63
6572.07
6564.59
6557.2
6549.87
6542.59
6535.34
6528.13
6520.94
6513.76
6506.59
6499.43
6492.28
6485.14
6478
6470.88
6463.78
6456.7
6449.64
6442.6
6435.59
6428.6
6421.65
6414.73
6407.84
6400.99
6394.17
6387.4
6380.67
6373.98
6367.33
6360.72
6354.16
6347.63
6341.13
6334.67
6328.23
6321.81
6315.41
6309.02
6302.64
6296.25
6289.85
6283.43
6276.99
6270.52
6264
6257.44
6250.8
6244.09
6237.29
6230.38
6223.34
6216.15
6208.79
6201.21
6193.39
6185.25
6176.75
6167.77
6158.18
6147.79
6136.34
6123.54
6109.36
6094.71
6080.14
6065.93
6052.25
6039.28
6027.29
6016.78
6009
5996.6
5998.38
5939.88
5876
5826.4
5791.57
5765.85
5743.56
5727.89
5707.69
5682.2
5650.68
5622.77
5605.94
5580.61
5566.83
5557.53
5550.68
5545.56
5541.87
5539.47
5538.28
6859.51
6858.89
6857.7
6856.03
6853.99
6851.64
6849.07
6846.33
6843.46
6840.48
6837.4
6834.23
6830.98
6827.64
6824.21
6820.68
6817.04
6813.28
6809.4
6805.39
6801.23
6796.94
6792.49
6787.9
6783.15
6778.24
6773.19
6767.99
6762.65
6757.19
6751.59
6745.88
6740.06
6734.12
6728.08
6721.94
6715.7
6709.37
6702.95
6696.45
6689.87
6683.21
6676.49
6669.69
6662.82
6655.85
6648.75
6641.49
6634
6626.2
6618.08
6609.85
6601.79
6593.96
6586.29
6578.74
6571.29
6563.92
6556.62
6549.38
6542.18
6535.01
6527.85
6520.71
6513.57
6506.43
6499.28
6492.14
6484.99
6477.86
6470.73
6463.62
6456.53
6449.46
6442.41
6435.39
6428.4
6421.43
6414.5
6407.6
6400.74
6393.92
6387.15
6380.41
6373.73
6367.09
6360.5
6353.95
6347.44
6340.98
6334.54
6328.14
6321.76
6315.4
6309.06
6302.73
6296.39
6290.06
6283.71
6277.35
6270.96
6264.54
6258.08
6251.56
6244.99
6238.34
6231.6
6224.77
6217.81
6210.71
6203.44
6195.97
6188.25
6180.22
6171.79
6162.81
6153.04
6142.06
6129.12
6113.39
6097.61
6082.47
6068.15
6054.76
6042.51
6031.79
6023.28
6018.14
6011.64
6005.11
5953.01
5874.52
5815.14
5774.4
5742.96
5718.16
5698.69
5677.91
5662.66
5636.82
5609.95
5575.93
5552.34
5546.61
5541.05
5536.33
5532.55
5529.73
5527.85
5526.91
6854.46
6853.95
6852.98
6851.6
6849.88
6847.88
6845.65
6843.23
6840.67
6837.97
6835.17
6832.25
6829.22
6826.09
6822.85
6819.48
6816
6812.38
6808.62
6804.72
6800.66
6796.44
6792.06
6787.5
6782.78
6777.89
6772.84
6767.63
6762.27
6756.78
6751.16
6745.42
6739.56
6733.58
6727.5
6721.31
6715.02
6708.63
6702.14
6695.57
6688.92
6682.2
6675.4
6668.53
6661.58
6654.54
6647.36
6639.99
6632.37
6624.44
6616.28
6608.2
6600.35
6592.68
6585.16
6577.74
6570.42
6563.18
6555.99
6548.85
6541.74
6534.65
6527.56
6520.47
6513.37
6506.26
6499.13
6491.99
6484.85
6477.7
6470.57
6463.44
6456.34
6449.26
6442.2
6435.17
6428.16
6421.19
6414.24
6407.33
6400.46
6393.63
6386.85
6380.12
6373.44
6366.81
6360.23
6353.7
6347.22
6340.78
6334.39
6328.02
6321.69
6315.38
6309.09
6302.81
6296.54
6290.28
6284.01
6277.73
6271.43
6265.12
6258.77
6252.38
6245.96
6239.47
6232.93
6226.31
6219.61
6212.8
6205.88
6198.81
6191.56
6184.1
6176.35
6168.22
6159.51
6149.75
6137.5
6117.45
6099.87
6083.98
6069.43
6056.14
6044.22
6034.08
6026.38
6022.72
6018.8
6009.26
5943.04
5853.93
5785.22
5732.39
5691.99
5662.67
5642.28
5627.2
5619.89
5595.1
5554.98
5526.38
5527.73
5526.24
5523.73
5521.03
5518.59
5516.64
5515.29
5514.6
6849.54
6849.13
6848.34
6847.2
6845.75
6844.05
6842.13
6840.02
6837.76
6835.35
6832.81
6830.15
6827.36
6824.44
6821.4
6818.22
6814.9
6811.44
6807.81
6804.03
6800.07
6795.94
6791.62
6787.11
6782.42
6777.54
6772.48
6767.25
6761.87
6756.34
6750.69
6744.9
6739
6732.99
6726.86
6720.61
6714.26
6707.79
6701.23
6694.58
6687.84
6681.03
6674.14
6667.19
6660.15
6653
6645.71
6638.21
6630.44
6622.4
6614.32
6606.45
6598.79
6591.3
6583.93
6576.66
6569.48
6562.37
6555.31
6548.29
6541.29
6534.29
6527.28
6520.25
6513.19
6506.11
6498.99
6491.85
6484.7
6477.54
6470.39
6463.25
6456.13
6449.03
6441.96
6434.92
6427.9
6420.91
6413.95
6407.02
6400.14
6393.3
6386.51
6379.77
6373.09
6366.47
6359.91
6353.41
6346.96
6340.55
6334.2
6327.88
6321.59
6315.34
6309.1
6302.89
6296.69
6290.5
6284.31
6278.12
6271.93
6265.72
6259.5
6253.25
6246.98
6240.67
6234.33
6227.94
6221.51
6215.01
6208.46
6201.82
6195.09
6188.26
6181.3
6174.22
6167.03
6159.91
6153.68
6134.99
6108.26
6087
6069.92
6056.03
6043.42
6032.32
6025.47
6023.96
6021.55
5983.98
5897.17
5812.95
5739.43
5677.94
5629.94
5598.25
5580.55
5568.74
5556.12
5530.15
5499.04
5496.06
5504.72
5506.87
5506.62
5505.48
5504.14
5502.94
5502.06
5501.6
6844.71
6844.37
6843.73
6842.79
6841.59
6840.16
6838.53
6836.72
6834.75
6832.62
6830.36
6827.95
6825.41
6822.72
6819.89
6816.91
6813.77
6810.47
6806.99
6803.34
6799.49
6795.45
6791.2
6786.75
6782.08
6777.21
6772.14
6766.88
6761.45
6755.88
6750.17
6744.35
6738.4
6732.34
6726.16
6719.85
6713.42
6706.87
6700.22
6693.46
6686.61
6679.69
6672.7
6665.63
6658.47
6651.2
6643.76
6636.1
6628.17
6620.13
6612.24
6604.59
6597.12
6589.8
6582.59
6575.49
6568.47
6561.51
6554.6
6547.71
6540.83
6533.93
6527.01
6520.05
6513.04
6505.98
6498.88
6491.73
6484.56
6477.37
6470.2
6463.03
6455.9
6448.78
6441.7
6434.64
6427.6
6420.6
6413.62
6406.67
6399.77
6392.91
6386.11
6379.36
6372.69
6366.08
6359.54
6353.06
6346.64
6340.28
6333.97
6327.7
6321.47
6315.27
6309.1
6302.96
6296.83
6290.72
6284.62
6278.53
6272.43
6266.34
6260.25
6254.14
6248.03
6241.91
6235.77
6229.63
6223.47
6217.29
6211.11
6204.92
6198.73
6192.54
6186.39
6180.32
6174.47
6169.19
6165.33
6157.5
6131.06
6100.57
6073.25
6051.92
6037.99
6030.47
6025.41
6022.97
6019.98
5948.72
5848.72
5761.26
5681.6
5610
5551.59
5519.84
5512.91
5511.1
5505.71
5490.53
5480.34
5485.26
5488.21
5489.91
5490.38
5490.12
5489.54
5488.92
5488.42
5488.15
6839.89
6839.63
6839.12
6838.36
6837.39
6836.22
6834.87
6833.34
6831.66
6829.82
6827.83
6825.69
6823.4
6820.95
6818.34
6815.57
6812.63
6809.5
6806.18
6802.67
6798.95
6795.01
6790.84
6786.43
6781.79
6776.92
6771.82
6766.51
6761.02
6755.39
6749.62
6743.74
6737.75
6731.64
6725.4
6719.03
6712.52
6705.87
6699.1
6692.21
6685.23
6678.18
6671.05
6663.84
6656.53
6649.09
6641.47
6633.61
6625.61
6617.71
6610.05
6602.61
6595.32
6588.18
6581.16
6574.24
6567.4
6560.61
6553.86
6547.13
6540.38
6533.61
6526.79
6519.9
6512.95
6505.91
6498.8
6491.63
6484.42
6477.2
6469.99
6462.8
6455.64
6448.51
6441.41
6434.34
6427.29
6420.26
6413.25
6406.28
6399.35
6392.47
6385.65
6378.89
6372.22
6365.62
6359.1
6352.65
6346.27
6339.96
6333.69
6327.48
6321.31
6315.17
6309.07
6303
6296.96
6290.93
6284.92
6278.93
6272.94
6266.97
6261
6255.05
6249.1
6243.16
6237.23
6231.32
6225.43
6219.58
6213.77
6208.02
6202.35
6196.79
6191.38
6186.2
6181.35
6177.04
6173.75
6170.6
6141.38
6101.94
6073.81
6048.33
6029.16
6013.94
5999.8
5983.14
5953.24
5873.61
5787.72
5701.77
5615.71
5528.87
5446.57
5416.61
5440.17
5457.02
5465.1
5462.99
5465.16
5471.56
5472.95
5474.19
5474.88
5475.09
5474.99
5474.77
5474.55
5474.42
6835.06
6834.86
6834.47
6833.89
6833.13
6832.21
6831.13
6829.89
6828.5
6826.95
6825.24
6823.38
6821.35
6819.15
6816.78
6814.22
6811.48
6808.55
6805.4
6802.04
6798.45
6794.63
6790.54
6786.2
6781.58
6776.69
6771.54
6766.16
6760.59
6754.86
6749.02
6743.08
6737.04
6730.89
6724.61
6718.17
6711.56
6704.79
6697.87
6690.82
6683.68
6676.45
6669.15
6661.77
6654.27
6646.62
6638.77
6630.78
6622.87
6615.19
6607.74
6600.48
6593.39
6586.45
6579.63
6572.91
6566.27
6559.68
6553.11
6546.55
6539.96
6533.33
6526.63
6519.83
6512.93
6505.91
6498.78
6491.57
6484.3
6477.02
6469.75
6462.53
6455.34
6448.2
6441.1
6434.01
6426.94
6419.89
6412.86
6405.85
6398.88
6391.96
6385.11
6378.35
6371.67
6365.08
6358.59
6352.18
6345.84
6339.58
6333.37
6327.22
6321.11
6315.05
6309.02
6303.02
6297.06
6291.12
6285.21
6279.31
6273.44
6267.59
6261.75
6255.94
6250.15
6244.39
6238.67
6232.99
6227.37
6221.83
6216.38
6211.05
6205.87
6200.88
6196.15
6191.74
6187.7
6183.86
6179.11
6177.95
6153.85
6109.22
6071.71
6038.44
6008.83
5981
5952.12
5918.08
5871.96
5804.76
5726.79
5642.4
5550.61
5443.19
5354.52
5336.76
5374.15
5411.71
5435.38
5445.4
5451.05
5456.71
5457.85
5459.01
5459.86
5460.35
5460.57
5460.62
5460.59
5460.56
6830.17
6830.03
6829.75
6829.34
6828.8
6828.13
6827.32
6826.37
6825.28
6824.03
6822.62
6821.04
6819.28
6817.34
6815.21
6812.89
6810.36
6807.63
6804.67
6801.48
6798.04
6794.34
6790.36
6786.07
6781.48
6776.57
6771.34
6765.84
6760.13
6754.28
6748.34
6742.34
6736.27
6730.1
6723.77
6717.27
6710.55
6703.64
6696.53
6689.28
6681.92
6674.48
6666.96
6659.35
6651.62
6643.71
6635.7
6627.76
6620.03
6612.54
6605.27
6598.2
6591.32
6584.59
6578
6571.51
6565.09
6558.72
6552.36
6546
6539.59
6533.12
6526.56
6519.86
6513.02
6506.02
6498.85
6491.56
6484.2
6476.82
6469.48
6462.21
6455.01
6447.87
6440.76
6433.67
6426.59
6419.51
6412.44
6405.38
6398.36
6391.39
6384.5
6377.71
6371.03
6364.45
6357.99
6351.62
6345.34
6339.14
6333
6326.91
6320.87
6314.88
6308.93
6303.02
6297.14
6291.29
6285.47
6279.68
6273.92
6268.19
6262.48
6256.81
6251.18
6245.59
6240.06
6234.6
6229.23
6223.98
6218.86
6213.92
6209.19
6204.73
6200.61
6196.93
6193.83
6191.6
6186.72
6184
6157.89
6109.37
6065.37
6024.89
5986.72
5949.1
5909.59
5865.09
5811.76
5746.68
5672.26
5590.44
5501.12
5401.68
5338.76
5330.74
5343.95
5380.3
5413.05
5429.93
5433.22
5441.1
5442.71
5444.14
5445.2
5445.9
5446.31
5446.54
5446.64
5446.68
6825.16
6825.08
6824.93
6824.69
6824.37
6823.95
6823.43
6822.79
6822
6821.07
6819.96
6818.68
6817.2
6815.54
6813.66
6811.58
6809.29
6806.77
6804.01
6801
6797.73
6794.17
6790.31
6786.1
6781.54
6776.59
6771.26
6765.57
6759.65
6753.61
6747.55
6741.5
6735.42
6729.25
6722.92
6716.36
6709.52
6702.41
6695.07
6687.54
6679.89
6672.17
6664.39
6656.52
6648.53
6640.47
6632.47
6624.65
6617.06
6609.71
6602.61
6595.74
6589.09
6582.61
6576.26
6570.03
6563.86
6557.74
6551.62
6545.48
6539.29
6533.01
6526.61
6520.05
6513.28
6506.28
6499.05
6491.63
6484.1
6476.58
6469.14
6461.83
6454.62
6447.5
6440.41
6433.33
6426.23
6419.12
6412
6404.88
6397.79
6390.75
6383.8
6376.97
6370.27
6363.72
6357.29
6350.98
6344.77
6338.63
6332.57
6326.55
6320.59
6314.68
6308.8
6302.97
6297.18
6291.43
6285.71
6280.02
6274.37
6268.76
6263.18
6257.64
6252.15
6246.73
6241.38
6236.12
6230.98
6225.99
6221.17
6216.57
6212.24
6208.23
6204.62
6201.52
6199.09
6197.56
6194.55
6189.52
6158.97
6105
6055.52
6009.02
5964.08
5919.07
5872.08
5820.91
5763.33
5697.93
5625.15
5545.97
5461.76
5376.03
5329.07
5324.43
5322.55
5352.49
5394.61
5416.4
5417.57
5424.57
5427.77
5429.65
5430.9
5431.72
5432.25
5432.58
5432.75
5432.83
6819.99
6819.97
6819.94
6819.89
6819.81
6819.67
6819.45
6819.13
6818.68
6818.08
6817.29
6816.32
6815.15
6813.76
6812.15
6810.32
6808.27
6805.97
6803.43
6800.63
6797.55
6794.16
6790.43
6786.33
6781.82
6776.84
6771.36
6765.38
6759.12
6752.78
6746.58
6740.48
6734.44
6728.34
6722.06
6715.46
6708.47
6701.12
6693.44
6685.53
6677.49
6669.44
6661.39
6653.33
6645.23
6637.17
6629.2
6621.41
6613.88
6606.65
6599.72
6593.08
6586.68
6580.48
6574.42
6568.48
6562.6
6556.75
6550.9
6545.02
6539.07
6533.02
6526.83
6520.43
6513.77
6506.79
6499.44
6491.8
6484.01
6476.26
6468.69
6461.33
6454.15
6447.08
6440.05
6432.99
6425.89
6418.74
6411.55
6404.35
6397.16
6390.01
6382.97
6376.08
6369.38
6362.85
6356.48
6350.25
6344.12
6338.07
6332.08
6326.15
6320.26
6314.43
6308.64
6302.89
6297.19
6291.53
6285.91
6280.33
6274.79
6269.29
6263.83
6258.42
6253.07
6247.79
6242.6
6237.53
6232.59
6227.82
6223.27
6218.97
6214.97
6211.33
6208.13
6205.46
6203.44
6202.26
6200.4
6193.01
6154.38
6096.12
6042.69
5991.61
5941.49
5891.02
5838.75
5783.13
5722.73
5656.56
5584.42
5506.53
5423.93
5347.95
5318.35
5318.01
5316.92
5339.11
5380.39
5402.92
5409.19
5411.85
5414.13
5415.81
5417.01
5417.84
5418.4
5418.76
5418.97
5419.06
6814.6
6814.65
6814.76
6814.91
6815.08
6815.24
6815.37
6815.41
6815.32
6815.07
6814.63
6813.99
6813.12
6812.03
6810.7
6809.13
6807.32
6805.27
6802.96
6800.38
6797.5
6794.31
6790.76
6786.79
6782.37
6777.38
6771.78
6765.28
6758.5
6751.63
6745.28
6739.18
6733.27
6727.36
6721.23
6714.64
6707.45
6699.77
6691.68
6683.27
6674.73
6666.38
6658.21
6650.12
6642.01
6633.89
6625.83
6617.95
6610.41
6603.28
6596.55
6590.17
6584.07
6578.2
6572.48
6566.86
6561.3
6555.77
6550.21
6544.62
6538.95
6533.18
6527.25
6521.08
6514.59
6507.64
6500.14
6492.1
6483.87
6475.75
6468.02
6460.65
6453.57
6446.64
6439.72
6432.71
6425.59
6418.39
6411.12
6403.81
6396.48
6389.18
6381.99
6375.02
6368.3
6361.82
6355.54
6349.41
6343.38
6337.43
6331.54
6325.69
6319.89
6314.13
6308.42
6302.77
6297.16
6291.59
6286.08
6280.6
6275.16
6269.77
6264.43
6259.14
6253.92
6248.77
6243.72
6238.79
6234.02
6229.45
6225.11
6221.06
6217.34
6214
6211.1
6208.73
6206.96
6205.93
6204.84
6185.31
6137.02
6082.42
6027.5
5973.23
5919.25
5864.77
5808.77
5750.14
5687.88
5621.18
5549.44
5471.79
5385.65
5323.62
5313.12
5312.59
5313.23
5328.12
5366.1
5390.82
5398.16
5399.52
5401.09
5402.44
5403.48
5404.24
5404.76
5405.1
5405.29
5405.38
6808.93
6809.06
6809.32
6809.69
6810.15
6810.66
6811.17
6811.61
6811.93
6812.07
6812
6811.7
6811.15
6810.36
6809.31
6808.01
6806.46
6804.65
6802.59
6800.24
6797.61
6794.64
6791.29
6787.49
6783.23
6778.28
6772.82
6765.31
6757.76
6749.74
6743.5
6737.48
6731.87
6726.38
6720.65
6714.26
6706.78
6698.72
6690.15
6681.09
6671.75
6663.17
6655.05
6647.02
6638.89
6630.61
6622.28
6614.16
6606.54
6599.51
6593.02
6586.97
6581.25
6575.76
6570.43
6565.19
6559.99
6554.79
6549.57
6544.29
6538.94
6533.5
6527.9
6522.06
6515.85
6509.05
6501.38
6492.6
6483.64
6474.85
6466.98
6459.68
6452.83
6446.19
6439.49
6432.52
6425.37
6418.1
6410.74
6403.3
6395.77
6388.23
6380.79
6373.72
6366.99
6360.59
6354.44
6348.46
6342.57
6336.75
6330.95
6325.19
6319.46
6313.78
6308.16
6302.59
6297.08
6291.62
6286.2
6280.82
6275.5
6270.21
6264.98
6259.81
6254.69
6249.65
6244.71
6239.89
6235.25
6230.83
6226.67
6222.82
6219.32
6216.22
6213.56
6211.39
6209.74
6208.65
6207.74
6180.87
6125.98
6069.03
6011.68
5954.55
5897.52
5840.05
5781.41
5720.8
5657.47
5590.83
5520.38
5445.53
5364.94
5315.88
5309.88
5309.28
5310.52
5325.2
5357.93
5378.68
5385.9
5386.99
5388.25
5389.37
5390.24
5390.88
5391.3
5391.57
5391.72
5391.79
6802.92
6803.13
6803.55
6804.17
6804.96
6805.88
6806.84
6807.75
6808.53
6809.1
6809.43
6809.49
6809.27
6808.77
6808.01
6806.98
6805.68
6804.13
6802.31
6800.22
6797.84
6795.12
6791.99
6788.38
6784.53
6779.59
6775.9
6766.89
6754.5
6745.93
6741.43
6735.29
6730.31
6725.63
6720.77
6715
6706.74
6698.21
6689.16
6679.21
6668.09
6659.56
6651.84
6644.07
6635.93
6627.37
6618.55
6609.87
6602.08
6595.21
6589.06
6583.44
6578.19
6573.17
6568.29
6563.48
6558.68
6553.85
6548.97
6544.04
6539.04
6533.96
6528.78
6523.42
6517.71
6511.34
6503.73
6493.28
6483.22
6473.03
6465.39
6458.27
6451.87
6445.79
6439.52
6432.52
6425.27
6417.91
6410.45
6402.85
6395.09
6387.16
6379.23
6372.06
6365.35
6359.12
6353.18
6347.41
6341.71
6336.02
6330.34
6324.66
6319
6313.38
6307.84
6302.36
6296.95
6291.59
6286.28
6281.01
6275.78
6270.6
6265.48
6260.4
6255.39
6250.43
6245.57
6240.83
6236.27
6231.95
6227.92
6224.23
6220.91
6217.99
6215.53
6213.54
6211.95
6210.36
6209.49
6178.23
6116.99
6056.05
5995.63
5935.78
5876.23
5816.5
5756.02
5694.16
5630.38
5564.28
5495.73
5425.01
5353
5312.92
5308.65
5308.81
5309.88
5313.96
5341.17
5364.7
5372.88
5374.3
5375.57
5376.55
5377.25
5377.72
5378
5378.16
5378.24
5378.27
6796.48
6796.78
6797.38
6798.28
6799.45
6800.85
6802.36
6803.84
6805.15
6806.21
6806.95
6807.38
6807.49
6807.3
6806.8
6806.03
6804.99
6803.68
6802.11
6800.26
6798.14
6795.75
6793
6789.48
6786.95
6782.55
6777
6764.03
6751.16
6742.96
6736.9
6731.97
6728.47
6725.11
6721.81
6718.26
6711.15
6699.12
6684.49
6671.6
6661.83
6655.16
6648.69
6641.49
6633.39
6624.41
6614.67
6604.68
6596.69
6590.17
6584.58
6579.55
6574.89
6570.43
6566.08
6561.75
6557.39
6552.95
6548.44
6543.84
6539.2
6534.53
6529.85
6525.13
6520.22
6514.87
6508.92
6496.66
6480.11
6468.64
6463.28
6456.14
6450.6
6445.59
6440.27
6432.78
6425.29
6417.82
6410.29
6402.57
6394.58
6386.1
6376.91
6369.93
6363.25
6357.33
6351.77
6346.3
6340.82
6335.3
6329.72
6324.1
6318.48
6312.91
6307.44
6302.07
6296.77
6291.52
6286.31
6281.14
6276.02
6270.94
6265.92
6260.95
6256.02
6251.13
6246.3
6241.58
6237.05
6232.78
6228.84
6225.27
6222.08
6219.31
6217.03
6215.28
6214.18
6212.37
6210.51
6175.03
6107.71
6042.53
5979.02
5916.71
5855.11
5793.71
5731.99
5669.44
5605.61
5540.19
5473.23
5405.79
5342.5
5311.47
5308.33
5308.39
5309.06
5311.73
5333.94
5353.27
5359.15
5361.74
5363.17
5364.01
5364.49
5364.73
5364.82
5364.83
5364.8
5364.78
6789.54
6789.92
6790.7
6791.9
6793.53
6795.52
6797.74
6799.92
6801.86
6803.44
6804.63
6805.43
6805.85
6805.94
6805.7
6805.17
6804.36
6803.29
6801.95
6800.36
6798.57
6796.74
6794.78
6791.79
6788.13
6777.71
6766.69
6754.58
6745.29
6738.09
6732.79
6729.06
6726.52
6724.52
6723.13
6720.59
6710.93
6694.83
6678.61
6664.44
6656.18
6650.58
6646.28
6639.8
6631.75
6622.21
6611.04
6597.49
6589.84
6584.22
6579.52
6575.31
6571.38
6567.59
6563.85
6560.06
6556.17
6552.15
6547.97
6543.7
6539.39
6535.12
6530.97
6527.01
6523.19
6518.98
6513.8
6496.64
6475.9
6463.91
6457.92
6452.43
6448.78
6445.71
6443.2
6437.64
6426.42
6416.25
6411.26
6402.39
6389.93
6379.53
6372.39
6367.48
6360.41
6355.2
6350.24
6345.2
6339.99
6334.62
6329.13
6323.55
6317.92
6312.34
6306.95
6301.7
6296.53
6291.4
6286.3
6281.24
6276.21
6271.23
6266.31
6261.44
6256.61
6251.77
6246.91
6242.14
6237.57
6233.28
6229.4
6225.92
6222.83
6220.16
6217.98
6216.38
6215.46
6214.15
6210.97
6169.61
6096.3
6027.34
5961.21
5896.93
5833.79
5771.25
5708.8
5646
5582.42
5517.65
5451.22
5382.43
5327.21
5308.97
5307.94
5307.98
5307.99
5309.89
5329.62
5346.55
5348.7
5350.35
5351.34
5351.83
5351.98
5351.91
5351.73
5351.53
5351.36
5351.27
6782.01
6782.46
6783.41
6784.91
6787.04
6789.79
6792.96
6796.06
6798.74
6800.89
6802.52
6803.67
6804.38
6804.71
6804.69
6804.37
6803.77
6802.93
6801.9
6800.65
6799.06
6797.88
6795.67
6785.35
6774.1
6760.15
6749.37
6740.21
6733.28
6728.61
6726.52
6726.58
6724.45
6723.33
6723.11
6720.92
6707.97
6686.94
6668.49
6653.06
6641.83
6639.88
6640.24
6636.6
6626.99
6612.36
6596.47
6584.41
6580.96
6577.35
6573.96
6570.78
6567.73
6564.72
6561.66
6558.48
6555.1
6551.48
6547.61
6543.59
6539.54
6535.58
6531.89
6528.75
6526.55
6523.24
6511.78
6488.65
6468.39
6454.69
6446.76
6444.54
6446.39
6445.25
6443.91
6437.68
6424.15
6409.51
6401.44
6394.42
6385.01
6376.49
6367.74
6360.78
6355.7
6352.8
6348.82
6344.26
6339.31
6334.08
6328.64
6323.04
6317.31
6311.58
6306.32
6301.26
6296.26
6291.26
6286.27
6281.29
6276.35
6271.46
6266.65
6261.9
6257.21
6252.45
6247.43
6242.52
6237.8
6233.36
6229.56
6226.19
6223.17
6220.51
6218.36
6216.8
6215.93
6214.77
6210.11
6158.5
6080.52
6009.31
5941.57
5875.99
5811.88
5748.68
5685.97
5623.35
5560.43
5496.75
5431.57
5363.4
5317.42
5307.97
5307.47
5307.58
5307.73
5308.8
5323.29
5337.79
5338.76
5339.62
5340.03
5340
5339.68
5339.19
5338.66
5338.19
5337.85
5337.67
6773.84
6774.32
6775.36
6777.09
6779.73
6783.45
6788.07
6792.43
6795.97
6798.69
6800.71
6802.15
6803.09
6803.61
6803.77
6803.63
6803.26
6802.73
6802.07
6801.3
6800.01
6796.43
6783.14
6764.46
6750.92
6739.42
6730.44
6723.63
6718.99
6716.54
6716.68
6720.3
6721.98
6722.27
6720.27
6717.64
6701.38
6676.45
6655.37
6635.87
6624.1
6629.03
6631.28
6624.47
6604.89
6584.44
6577.54
6573.74
6572.23
6570.27
6568.2
6566.12
6564.03
6561.88
6559.6
6557.09
6554.27
6551.07
6547.39
6543.51
6539.6
6535.78
6532.27
6529.54
6527.85
6525.64
6508.56
6478.74
6453.72
6434.54
6421.21
6418.04
6427.99
6437.73
6438.11
6426.71
6408.77
6393.54
6387.23
6383
6376.43
6370.77
6363.29
6356.87
6353.67
6351.48
6347.98
6343.7
6338.9
6333.74
6328.32
6322.66
6316.7
6310.36
6305.48
6300.76
6295.98
6291.12
6286.21
6281.31
6276.43
6271.62
6266.91
6262.32
6257.86
6253.37
6247.84
6242.71
6237.75
6232.8
6229.28
6226.12
6223.13
6220.36
6218.16
6216.52
6215.61
6214.58
6192.2
6128.84
6057.98
5987.83
5919.74
5853.61
5789.04
5725.63
5663.04
5600.99
5539.2
5477.35
5414.9
5350.87
5312.16
5306.68
5306.87
5307.15
5307.53
5309.41
5317.37
5328.09
5328.94
5329.33
5329.14
5328.48
5327.54
5326.5
5325.53
5324.73
5324.17
5323.88
6764.99
6765.43
6766.42
6768.18
6771.15
6776
6783.23
6789.42
6793.82
6796.98
6799.27
6800.9
6801.99
6802.65
6802.96
6803.03
6802.92
6802.68
6802.36
6800.71
6789.12
6774.82
6755.27
6738.43
6725.7
6716.18
6709.35
6704.86
6702.52
6701.87
6703.36
6708.71
6716
6711.36
6711.6
6711.45
6689.35
6662.1
6640.67
6622.35
6614.48
6621.39
6624.09
6607.26
6580.51
6562.69
6563.85
6564.31
6563.95
6563.29
6562.44
6561.47
6560.39
6559.19
6557.77
6556
6553.81
6551.14
6547.37
6543.48
6539.56
6535.67
6531.86
6529.3
6527.55
6524.56
6501.81
6464.02
6433.21
6408.54
6388.45
6379.11
6384.67
6390.03
6406.81
6405.26
6392.5
6384.76
6381.33
6376.95
6372.01
6368.79
6363.6
6358.03
6354.6
6350.71
6346.81
6342.89
6337.73
6332.36
6327.35
6321.47
6313.89
6307.67
6304.49
6300.33
6295.77
6291.01
6286.17
6281.29
6276.44
6271.69
6267.05
6262.61
6258.55
6255.34
6247.9
6243
6236.2
6230.8
6228.64
6225.87
6222.86
6219.64
6217.4
6215.52
6214.47
6212.95
6177.85
6106.66
6034.73
5964.28
5895.96
5829.66
5765.03
5701.76
5639.59
5578.37
5518.04
5458.57
5399.79
5341.1
5308.33
5305.4
5306
5306.62
5307.54
5309.3
5312.35
5317.9
5319.59
5319.63
5318.72
5317.24
5315.49
5313.76
5312.23
5311.03
5310.22
5309.81
6755.5
6755.81
6756.5
6757.85
6760.46
6765.91
6779.15
6787.98
6792.66
6795.9
6798.27
6799.98
6801.12
6801.9
6802.38
6802.61
6802.74
6802.69
6792.44
6779.72
6760.23
6742.8
6724.68
6708.28
6697.27
6690.24
6685.92
6683.95
6684.35
6685.06
6686.19
6688.4
6692.44
6686.32
6687.9
6685.56
6663.39
6641.92
6622.86
6606.03
6598.59
6601.58
6600.42
6585.08
6564.52
6552.37
6551.77
6555.28
6555.98
6556.51
6556.81
6556.92
6556.88
6556.7
6556.28
6555.36
6553.82
6552.31
6548.59
6543.32
6538.33
6533.69
6530.21
6528.25
6525.61
6518.69
6488.38
6442.34
6406.55
6377.98
6353.93
6342.64
6342.42
6334.79
6364.99
6393.47
6385.56
6381.72
6381.43
6376.81
6371.48
6367.49
6364.21
6360.8
6346.15
6333.79
6326.76
6321.13
6315.63
6310.4
6305.33
6299.82
6293.79
6288.65
6284.96
6281.27
6277.62