/*--------------------------------*- C++ -*----------------------------------*\
| =========                 |                                                 |
| \\      /  F ield         | OpenFOAM: The Open Source CFD Toolbox           |
|  \\    /   O peration     | Version:  2.1.0                                 |
|   \\  /    A nd           | Web:      www.OpenFOAM.org                      |
|    \\/     M anipulation  |                                                 |
\*---------------------------------------------------------------------------*/
FoamFile
{
    version     2.0;
    format      ascii;
    class       volScalarField;
    location    "16060";
    object      kr_o;
}
// * * * * * * * * * * * * * * * * * * * * * * * * * * * * * * * * * * * * * //

dimensions      [0 0 0 0 0 0 0];

internalField   nonuniform List<scalar> 
8000
(
0.0266192
0.0323208
0.0399534
0.0489918
0.059064
0.0699036
0.0812783
0.0929587
0.104748
0.116492
0.128078
0.139437
0.150533
0.161342
0.171854
0.182116
0.19219
0.202151
0.212086
0.222094
0.232295
0.24283
0.253871
0.265634
0.27841
0.292612
0.308821
0.327829
0.350587
0.377913
0.411162
0.451408
0.495679
0.533405
0.554017
0.560759
0.562235
0.562471
0.562498
0.5625
0.0323202
0.0379047
0.0453563
0.0541933
0.0640799
0.0747654
0.0860062
0.0975791
0.109292
0.120994
0.132574
0.143959
0.15511
0.165992
0.176605
0.186999
0.197239
0.207403
0.217581
0.227881
0.238427
0.249366
0.260876
0.273183
0.286602
0.30157
0.318694
0.33876
0.362605
0.390798
0.424492
0.463968
0.505369
0.538652
0.555778
0.561146
0.562296
0.562478
0.562498
0.5625
0.0399533
0.0453559
0.0525575
0.061134
0.0707869
0.0812627
0.0923242
0.103757
0.115377
0.127035
0.138616
0.150045
0.161269
0.172238
0.182972
0.193524
0.20396
0.214361
0.224824
0.235458
0.246392
0.257774
0.269783
0.282658
0.296726
0.312435
0.330377
0.351258
0.375659
0.404015
0.437352
0.475323
0.513632
0.542932
0.557176
0.561451
0.562345
0.562483
0.562499
0.5625
0.0489918
0.054193
0.061134
0.0694503
0.078859
0.0891148
0.0999954
0.1113
0.122854
0.134507
0.146142
0.157669
0.169005
0.180116
0.191033
0.201812
0.212523
0.223254
0.234106
0.245191
0.25664
0.268596
0.281245
0.294833
0.309681
0.326207
0.344915
0.366297
0.390571
0.418401
0.450516
0.48619
0.521061
0.546578
0.558323
0.561699
0.562384
0.562488
0.562499
0.5625
0.0590639
0.0640798
0.0707869
0.0788589
0.0880354
0.0980917
0.108827
0.120059
0.131623
0.143367
0.155162
0.166883
0.178425
0.18979
0.201013
0.212157
0.223303
0.234545
0.245993
0.257762
0.269977
0.282794
0.296402
0.311034
0.326965
0.344491
0.363866
0.385147
0.408612
0.434999
0.464768
0.497168
0.528103
0.549837
0.559305
0.561905
0.562416
0.562491
0.562499
0.5625
0.0699035
0.0747653
0.0812626
0.0891147
0.0980916
0.107998
0.118661
0.129925
0.141637
0.153645
0.165781
0.177853
0.189797
0.20162
0.213372
0.225134
0.237004
0.249092
0.261513
0.27439
0.28787
0.302119
0.317316
0.333626
0.351146
0.369822
0.389401
0.409937
0.431704
0.455174
0.480948
0.508796
0.535103
0.552873
0.56017
0.562081
0.562443
0.562494
0.5625
0.5625
0.0812782
0.0860061
0.092324
0.0999951
0.108827
0.118661
0.129366
0.140823
0.152912
0.165473
0.178244
0.191008
0.203699
0.216345
0.229033
0.241877
0.255004
0.268545
0.282646
0.297473
0.313202
0.329987
0.34789
0.366775
0.386252
0.405991
0.425484
0.444259
0.462284
0.480296
0.499724
0.521435
0.542235
0.555735
0.560932
0.562227
0.562464
0.562496
0.5625
0.5625
0.0929585
0.0975789
0.103757
0.1113
0.120059
0.129925
0.140823
0.152709
0.165531
0.179124
0.193206
0.207324
0.221413
0.23558
0.249988
0.264812
0.280234
0.296464
0.313729
0.332231
0.35206
0.373075
0.395083
0.417537
0.439355
0.459235
0.476145
0.489745
0.500569
0.510096
0.520728
0.534795
0.549247
0.55829
0.561559
0.562341
0.562479
0.562498
0.5625
0.5625
0.104748
0.109292
0.115377
0.122854
0.131622
0.141637
0.152912
0.165531
0.179603
0.195306
0.212467
0.229385
0.24627
0.263486
0.281366
0.300242
0.320453
0.342282
0.365814
0.391092
0.417768
0.444616
0.469779
0.491493
0.508776
0.521535
0.530215
0.535472
0.53806
0.539074
0.540675
0.546981
0.555173
0.560249
0.562008
0.562418
0.56249
0.562499
0.5625
0.5625
0.116492
0.120994
0.127034
0.134507
0.143367
0.153645
0.165473
0.179124
0.195306
0.215731
0.24373
0.267573
0.291437
0.316664
0.344034
0.373794
0.40524
0.437128
0.467533
0.494238
0.515733
0.53166
0.542607
0.54966
0.553981
0.556509
0.557865
0.55836
0.558013
0.556548
0.553885
0.55525
0.55906
0.561464
0.562276
0.562463
0.562495
0.5625
0.5625
0.5625
0.128078
0.132573
0.138616
0.146142
0.155162
0.165781
0.178244
0.193206
0.212467
0.24373
0.539134
0.548068
0.549126
0.551109
0.553408
0.555646
0.557602
0.559168
0.560327
0.56113
0.561655
0.561985
0.562186
0.562304
0.562373
0.562412
0.562431
0.562437
0.562425
0.562375
0.557664
0.559167
0.561066
0.562083
0.56241
0.562485
0.562498
0.5625
0.5625
0.5625
0.139437
0.143959
0.150045
0.157669
0.166883
0.177853
0.191008
0.207324
0.229385
0.267573
0.548068
0.562073
0.562281
0.562313
0.562353
0.562393
0.562427
0.562452
0.56247
0.562481
0.562489
0.562493
0.562496
0.562498
0.562498
0.562499
0.562499
0.562499
0.562499
0.562499
0.560299
0.561161
0.561967
0.562349
0.562468
0.562495
0.562499
0.5625
0.5625
0.5625
0.150533
0.15511
0.161269
0.169005
0.178425
0.189797
0.203699
0.221413
0.24627
0.291437
0.549126
0.562281
0.562495
0.562498
0.562498
0.562499
0.562499
0.562499
0.5625
0.5625
0.5625
0.5625
0.5625
0.5625
0.5625
0.5625
0.5625
0.5625
0.5625
0.5625
0.561648
0.562022
0.562319
0.56245
0.562489
0.562498
0.5625
0.5625
0.5625
0.5625
0.161342
0.165992
0.172237
0.180115
0.18979
0.201619
0.216345
0.23558
0.263486
0.316664
0.551109
0.562313
0.562498
0.5625
0.5625
0.5625
0.5625
0.5625
0.5625
0.5625
0.5625
0.5625
0.5625
0.5625
0.5625
0.5625
0.5625
0.5625
0.5625
0.5625
0.562205
0.562343
0.562442
0.562484
0.562497
0.562499
0.5625
0.5625
0.5625
0.5625
0.171854
0.176605
0.182972
0.191033
0.201013
0.213372
0.229033
0.249988
0.281366
0.344034
0.553408
0.562353
0.562498
0.5625
0.5625
0.5625
0.5625
0.5625
0.5625
0.5625
0.5625
0.5625
0.5625
0.5625
0.5625
0.5625
0.5625
0.5625
0.5625
0.5625
0.562405
0.562451
0.562482
0.562495
0.562499
0.5625
0.5625
0.5625
0.5625
0.5625
0.182116
0.186999
0.193523
0.201811
0.212157
0.225134
0.241877
0.264812
0.300242
0.373794
0.555646
0.562393
0.562499
0.5625
0.5625
0.5625
0.5625
0.5625
0.5625
0.5625
0.5625
0.5625
0.5625
0.5625
0.5625
0.5625
0.5625
0.5625
0.5625
0.5625
0.562471
0.562485
0.562495
0.562499
0.5625
0.5625
0.5625
0.5625
0.5625
0.5625
0.19219
0.197239
0.203959
0.212523
0.223302
0.237004
0.255004
0.280234
0.320453
0.40524
0.557602
0.562427
0.562499
0.5625
0.5625
0.5625
0.5625
0.5625
0.5625
0.5625
0.5625
0.5625
0.5625
0.5625
0.5625
0.5625
0.5625
0.5625
0.5625
0.5625
0.562491
0.562496
0.562498
0.5625
0.5625
0.5625
0.5625
0.5625
0.5625
0.5625
0.202151
0.207402
0.214361
0.223254
0.234545
0.249092
0.268545
0.296464
0.342281
0.437128
0.559168
0.562452
0.562499
0.5625
0.5625
0.5625
0.5625
0.5625
0.5625
0.5625
0.5625
0.5625
0.5625
0.5625
0.5625
0.5625
0.5625
0.5625
0.5625
0.5625
0.562497
0.562499
0.5625
0.5625
0.5625
0.5625
0.5625
0.5625
0.5625
0.5625
0.212086
0.217581
0.224824
0.234105
0.245993
0.261513
0.282646
0.313729
0.365814
0.467533
0.560327
0.56247
0.5625
0.5625
0.5625
0.5625
0.5625
0.5625
0.5625
0.5625
0.5625
0.5625
0.5625
0.5625
0.5625
0.5625
0.5625
0.5625
0.5625
0.5625
0.562499
0.5625
0.5625
0.5625
0.5625
0.5625
0.5625
0.5625
0.5625
0.5625
0.222094
0.227881
0.235458
0.245191
0.257762
0.27439
0.297473
0.332231
0.391092
0.494238
0.56113
0.562481
0.5625
0.5625
0.5625
0.5625
0.5625
0.5625
0.5625
0.5625
0.5625
0.5625
0.5625
0.5625
0.5625
0.5625
0.5625
0.5625
0.5625
0.5625
0.5625
0.5625
0.5625
0.5625
0.5625
0.5625
0.5625
0.5625
0.5625
0.5625
0.232295
0.238426
0.246392
0.256639
0.269977
0.28787
0.313202
0.35206
0.417768
0.515733
0.561655
0.562489
0.5625
0.5625
0.5625
0.5625
0.5625
0.5625
0.5625
0.5625
0.5625
0.5625
0.5625
0.5625
0.5625
0.5625
0.5625
0.5625
0.5625
0.5625
0.5625
0.5625
0.5625
0.5625
0.5625
0.5625
0.5625
0.5625
0.5625
0.5625
0.24283
0.249366
0.257773
0.268595
0.282794
0.302119
0.329987
0.373075
0.444616
0.53166
0.561985
0.562493
0.5625
0.5625
0.5625
0.5625
0.5625
0.5625
0.5625
0.5625
0.5625
0.5625
0.5625
0.5625
0.5625
0.5625
0.5625
0.5625
0.5625
0.5625
0.5625
0.5625
0.5625
0.5625
0.5625
0.5625
0.5625
0.5625
0.5625
0.5625
0.253871
0.260876
0.269783
0.281245
0.296401
0.317316
0.347889
0.395083
0.469779
0.542607
0.562186
0.562496
0.5625
0.5625
0.5625
0.5625
0.5625
0.5625
0.5625
0.5625
0.5625
0.5625
0.5625
0.5625
0.5625
0.5625
0.5625
0.5625
0.5625
0.5625
0.5625
0.5625
0.5625
0.5625
0.5625
0.5625
0.5625
0.5625
0.5625
0.5625
0.265634
0.273183
0.282658
0.294832
0.311034
0.333626
0.366775
0.417537
0.491493
0.54966
0.562304
0.562498
0.5625
0.5625
0.5625
0.5625
0.5625
0.5625
0.5625
0.5625
0.5625
0.5625
0.5625
0.5625
0.5625
0.5625
0.5625
0.5625
0.5625
0.5625
0.5625
0.5625
0.5625
0.5625
0.5625
0.5625
0.5625
0.5625
0.5625
0.5625
0.27841
0.286602
0.296726
0.30968
0.326965
0.351146
0.386252
0.439355
0.508776
0.553981
0.562373
0.562498
0.5625
0.5625
0.5625
0.5625
0.5625
0.5625
0.5625
0.5625
0.5625
0.5625
0.5625
0.5625
0.5625
0.5625
0.5625
0.5625
0.5625
0.5625
0.5625
0.5625
0.5625
0.5625
0.5625
0.5625
0.5625
0.5625
0.5625
0.5625
0.292612
0.30157
0.312435
0.326207
0.344491
0.369822
0.40599
0.459235
0.521535
0.556509
0.562412
0.562499
0.5625
0.5625
0.5625
0.5625
0.5625
0.5625
0.5625
0.5625
0.5625
0.5625
0.5625
0.5625
0.5625
0.5625
0.5625
0.5625
0.5625
0.5625
0.5625
0.5625
0.5625
0.5625
0.5625
0.5625
0.5625
0.5625
0.5625
0.5625
0.308821
0.318694
0.330377
0.344915
0.363866
0.389401
0.425484
0.476145
0.530215
0.557865
0.562431
0.562499
0.5625
0.5625
0.5625
0.5625
0.5625
0.5625
0.5625
0.5625
0.5625
0.5625
0.5625
0.5625
0.5625
0.5625
0.5625
0.5625
0.5625
0.5625
0.5625
0.5625
0.5625
0.5625
0.5625
0.5625
0.5625
0.5625
0.5625
0.5625
0.327829
0.33876
0.351257
0.366297
0.385147
0.409937
0.444259
0.489745
0.535472
0.55836
0.562437
0.562499
0.5625
0.5625
0.5625
0.5625
0.5625
0.5625
0.5625
0.5625
0.5625
0.5625
0.5625
0.5625
0.5625
0.5625
0.5625
0.5625
0.5625
0.5625
0.5625
0.5625
0.5625
0.5625
0.5625
0.5625
0.5625
0.5625
0.5625
0.5625
0.350586
0.362605
0.375659
0.390571
0.408612
0.431704
0.462283
0.500569
0.53806
0.558013
0.562425
0.562499
0.5625
0.5625
0.5625
0.5625
0.5625
0.5625
0.5625
0.5625
0.5625
0.5625
0.5625
0.5625
0.5625
0.5625
0.5625
0.5625
0.5625
0.5625
0.5625
0.5625
0.5625
0.5625
0.5625
0.5625
0.5625
0.5625
0.5625
0.5625
0.377913
0.390798
0.404015
0.418401
0.434999
0.455174
0.480296
0.510096
0.539074
0.556548
0.562375
0.562499
0.5625
0.5625
0.5625
0.5625
0.5625
0.5625
0.5625
0.5625
0.5625
0.5625
0.5625
0.5625
0.5625
0.5625
0.5625
0.5625
0.5625
0.5625
0.5625
0.5625
0.5625
0.5625
0.5625
0.5625
0.5625
0.5625
0.5625
0.5625
0.411162
0.424492
0.437352
0.450516
0.464768
0.480948
0.499723
0.520728
0.540675
0.553885
0.557664
0.560299
0.561648
0.562205
0.562405
0.562471
0.562491
0.562497
0.562499
0.5625
0.5625
0.5625
0.5625
0.5625
0.5625
0.5625
0.5625
0.5625
0.5625
0.5625
0.5625
0.5625
0.5625
0.5625
0.5625
0.5625
0.5625
0.5625
0.5625
0.5625
0.451407
0.463968
0.475323
0.48619
0.497167
0.508796
0.521435
0.534795
0.546981
0.55525
0.559167
0.561161
0.562022
0.562343
0.562451
0.562485
0.562496
0.562499
0.5625
0.5625
0.5625
0.5625
0.5625
0.5625
0.5625
0.5625
0.5625
0.5625
0.5625
0.5625
0.5625
0.5625
0.5625
0.5625
0.5625
0.5625
0.5625
0.5625
0.5625
0.5625
0.495679
0.505369
0.513632
0.521061
0.528103
0.535103
0.542235
0.549247
0.555173
0.55906
0.561066
0.561967
0.562319
0.562442
0.562482
0.562495
0.562498
0.5625
0.5625
0.5625
0.5625
0.5625
0.5625
0.5625
0.5625
0.5625
0.5625
0.5625
0.5625
0.5625
0.5625
0.5625
0.5625
0.5625
0.5625
0.5625
0.5625
0.5625
0.5625
0.5625
0.533405
0.538652
0.542932
0.546578
0.549837
0.552873
0.555735
0.55829
0.560249
0.561464
0.562083
0.562349
0.56245
0.562484
0.562495
0.562499
0.5625
0.5625
0.5625
0.5625
0.5625
0.5625
0.5625
0.5625
0.5625
0.5625
0.5625
0.5625
0.5625
0.5625
0.5625
0.5625
0.5625
0.5625
0.5625
0.5625
0.5625
0.5625
0.5625
0.5625
0.554017
0.555778
0.557176
0.558323
0.559305
0.56017
0.560932
0.561559
0.562008
0.562276
0.56241
0.562468
0.562489
0.562497
0.562499
0.5625
0.5625
0.5625
0.5625
0.5625
0.5625
0.5625
0.5625
0.5625
0.5625
0.5625
0.5625
0.5625
0.5625
0.5625
0.5625
0.5625
0.5625
0.5625
0.5625
0.5625
0.5625
0.5625
0.5625
0.5625
0.560759
0.561146
0.561451
0.561699
0.561905
0.562081
0.562227
0.562341
0.562418
0.562463
0.562485
0.562495
0.562498
0.562499
0.5625
0.5625
0.5625
0.5625
0.5625
0.5625
0.5625
0.5625
0.5625
0.5625
0.5625
0.5625
0.5625
0.5625
0.5625
0.5625
0.5625
0.5625
0.5625
0.5625
0.5625
0.5625
0.5625
0.5625
0.5625
0.5625
0.562235
0.562296
0.562345
0.562384
0.562416
0.562443
0.562464
0.562479
0.56249
0.562495
0.562498
0.562499
0.5625
0.5625
0.5625
0.5625
0.5625
0.5625
0.5625
0.5625
0.5625
0.5625
0.5625
0.5625
0.5625
0.5625
0.5625
0.5625
0.5625
0.5625
0.5625
0.5625
0.5625
0.5625
0.5625
0.5625
0.5625
0.5625
0.5625
0.5625
0.562471
0.562478
0.562483
0.562488
0.562491
0.562494
0.562496
0.562498
0.562499
0.5625
0.5625
0.5625
0.5625
0.5625
0.5625
0.5625
0.5625
0.5625
0.5625
0.5625
0.5625
0.5625
0.5625
0.5625
0.5625
0.5625
0.5625
0.5625
0.5625
0.5625
0.5625
0.5625
0.5625
0.5625
0.5625
0.5625
0.5625
0.5625
0.5625
0.5625
0.562498
0.562498
0.562499
0.562499
0.562499
0.5625
0.5625
0.5625
0.5625
0.5625
0.5625
0.5625
0.5625
0.5625
0.5625
0.5625
0.5625
0.5625
0.5625
0.5625
0.5625
0.5625
0.5625
0.5625
0.5625
0.5625
0.5625
0.5625
0.5625
0.5625
0.5625
0.5625
0.5625
0.5625
0.5625
0.5625
0.5625
0.5625
0.5625
0.5625
0.5625
0.5625
0.5625
0.5625
0.5625
0.5625
0.5625
0.5625
0.5625
0.5625
0.5625
0.5625
0.5625
0.5625
0.5625
0.5625
0.5625
0.5625
0.5625
0.5625
0.5625
0.5625
0.5625
0.5625
0.5625
0.5625
0.5625
0.5625
0.5625
0.5625
0.5625
0.5625
0.5625
0.5625
0.5625
0.5625
0.5625
0.5625
0.5625
0.5625
0.00876053
0.0131082
0.0194625
0.0274447
0.03665
0.0467062
0.0573109
0.0682382
0.0792946
0.0902954
0.101097
0.111604
0.121766
0.131585
0.141088
0.150276
0.159183
0.167851
0.176327
0.18466
0.192906
0.201119
0.209362
0.217705
0.226228
0.235024
0.244217
0.254016
0.264877
0.278016
0.295372
0.320303
0.359404
0.421296
0.496795
0.545042
0.559602
0.562171
0.562476
0.562499
0.0131069
0.0176969
0.0241605
0.0321312
0.0412505
0.0511949
0.0616974
0.0725502
0.0835486
0.0945066
0.105282
0.115777
0.125945
0.135794
0.145334
0.15457
0.163534
0.172266
0.180812
0.18922
0.19754
0.205825
0.214134
0.222528
0.231081
0.239878
0.249038
0.258782
0.269648
0.283012
0.300842
0.326792
0.367861
0.431945
0.505327
0.548095
0.560173
0.56224
0.562481
0.562499
0.0194631
0.0241601
0.0306258
0.0384996
0.0474619
0.057236
0.0675962
0.0783369
0.0892456
0.100137
0.110868
0.12134
0.131509
0.141388
0.150956
0.160227
0.169231
0.178006
0.186594
0.195038
0.203383
0.211677
0.219969
0.228313
0.23677
0.245414
0.254367
0.263891
0.274676
0.288178
0.306358
0.333208
0.376134
0.442085
0.512903
0.550648
0.560642
0.562297
0.562486
0.5625
0.027445
0.0321305
0.0384994
0.0462088
0.0549766
0.064569
0.0747854
0.0854094
0.0962312
0.107067
0.11777
0.12824
0.138446
0.148365
0.157972
0.167286
0.176333
0.185147
0.193767
0.202228
0.21057
0.21883
0.227047
0.235261
0.243517
0.251884
0.260503
0.269725
0.280453
0.293951
0.312332
0.339957
0.384658
0.452149
0.519861
0.552848
0.561038
0.562344
0.562489
0.5625
0.0366498
0.04125
0.0474619
0.0549767
0.0635511
0.0729861
0.0830755
0.0936091
0.104385
0.115219
0.125954
0.136496
0.146801
0.156799
0.166486
0.175875
0.184993
0.193868
0.202533
0.211019
0.219356
0.227569
0.235682
0.243718
0.251712
0.259745
0.268021
0.277073
0.287699
0.301021
0.3194
0.347654
0.39409
0.462747
0.526568
0.554826
0.561382
0.562384
0.562492
0.5625
0.046706
0.0511948
0.0572363
0.0645693
0.0729862
0.0822924
0.0922946
0.102801
0.11362
0.124564
0.135469
0.146229
0.156716
0.166882
0.176723
0.186254
0.195501
0.204491
0.213251
0.221807
0.230177
0.238378
0.24642
0.254326
0.262154
0.270053
0.278374
0.287433
0.297789
0.310674
0.328725
0.35739
0.405547
0.474758
0.533381
0.556671
0.561688
0.562419
0.562495
0.5625
0.0573108
0.0616975
0.0675966
0.0747857
0.0830757
0.0922946
0.102279
0.112867
0.123888
0.135164
0.146515
0.157682
0.168523
0.179002
0.189125
0.198916
0.208405
0.217621
0.226594
0.235346
0.243899
0.252282
0.260543
0.268791
0.277214
0.285814
0.294616
0.303775
0.313752
0.325767
0.342779
0.371355
0.421039
0.489348
0.540517
0.558404
0.561956
0.562448
0.562497
0.5625
0.0682381
0.0725505
0.0783373
0.0854097
0.0936093
0.102801
0.112867
0.1237
0.135199
0.147248
0.159501
0.171444
0.182934
0.193976
0.204615
0.214901
0.224882
0.234608
0.244136
0.253539
0.262931
0.272522
0.282399
0.292566
0.303013
0.313636
0.324199
0.334367
0.343998
0.353918
0.367545
0.394142
0.443854
0.507389
0.547742
0.55994
0.562175
0.56247
0.562498
0.5625
0.0792946
0.0835488
0.0892459
0.0962314
0.104385
0.11362
0.123888
0.135199
0.147652
0.161248
0.17557
0.189045
0.201761
0.213916
0.225661
0.237117
0.248413
0.259729
0.271352
0.283491
0.296298
0.310009
0.32489
0.341119
0.358542
0.376344
0.392815
0.405576
0.412581
0.41393
0.414593
0.432046
0.476075
0.527349
0.554096
0.561123
0.562331
0.562485
0.562499
0.5625
0.0902953
0.0945068
0.100137
0.107068
0.115219
0.124564
0.135164
0.147248
0.161248
0.178156
0.199685
0.216685
0.232431
0.247766
0.263126
0.278933
0.295846
0.314341
0.334916
0.358098
0.384103
0.412345
0.441038
0.467494
0.489292
0.505251
0.515242
0.519221
0.516149
0.503356
0.480077
0.479747
0.511173
0.544336
0.55852
0.561869
0.562424
0.562493
0.5625
0.5625
0.101097
0.105282
0.110868
0.11777
0.125954
0.135469
0.146515
0.159501
0.17557
0.199685
0.524253
0.535602
0.534957
0.536133
0.538345
0.541135
0.544223
0.547398
0.550482
0.553317
0.555772
0.557756
0.559245
0.560285
0.560965
0.561382
0.561606
0.561663
0.561497
0.560779
0.504256
0.513842
0.537492
0.554837
0.560906
0.56225
0.56247
0.562497
0.5625
0.5625
0.111604
0.115777
0.12134
0.12824
0.136496
0.146229
0.157682
0.171444
0.189045
0.216685
0.535602
0.561383
0.561846
0.561862
0.561924
0.56201
0.562105
0.562196
0.562276
0.562342
0.562393
0.562429
0.562454
0.56247
0.56248
0.562486
0.562489
0.562489
0.562488
0.56248
0.529883
0.539509
0.552602
0.559741
0.561937
0.562411
0.562489
0.562499
0.5625
0.5625
0.121766
0.125945
0.131509
0.138446
0.146801
0.156716
0.168523
0.182934
0.201761
0.232431
0.534957
0.561846
0.56248
0.56249
0.562491
0.562492
0.562494
0.562496
0.562497
0.562498
0.562499
0.562499
0.562499
0.5625
0.5625
0.5625
0.5625
0.5625
0.5625
0.5625
0.548207
0.553758
0.559151
0.561605
0.562318
0.562471
0.562496
0.5625
0.5625
0.5625
0.131585
0.135794
0.141388
0.148364
0.156799
0.166882
0.179002
0.193976
0.213916
0.247766
0.536133
0.561862
0.56249
0.5625
0.5625
0.5625
0.5625
0.5625
0.5625
0.5625
0.5625
0.5625
0.5625
0.5625
0.5625
0.5625
0.5625
0.5625
0.5625
0.5625
0.557338
0.559639
0.561468
0.562228
0.562444
0.562491
0.562499
0.5625
0.5625
0.5625
0.141088
0.145334
0.150956
0.157972
0.166486
0.176723
0.189125
0.204615
0.225661
0.263126
0.538345
0.561924
0.562491
0.5625
0.5625
0.5625
0.5625
0.5625
0.5625
0.5625
0.5625
0.5625
0.5625
0.5625
0.5625
0.5625
0.5625
0.5625
0.5625
0.5625
0.560844
0.561638
0.562198
0.562421
0.562484
0.562497
0.5625
0.5625
0.5625
0.5625
0.150276
0.15457
0.160227
0.167286
0.175875
0.186254
0.198916
0.214901
0.237117
0.278933
0.541135
0.56201
0.562492
0.5625
0.5625
0.5625
0.5625
0.5625
0.5625
0.5625
0.5625
0.5625
0.5625
0.5625
0.5625
0.5625
0.5625
0.5625
0.5625
0.5625
0.562001
0.562251
0.562414
0.562477
0.562495
0.562499
0.5625
0.5625
0.5625
0.5625
0.159183
0.163534
0.169231
0.176333
0.184992
0.195501
0.208405
0.224882
0.248413
0.295846
0.544223
0.562105
0.562494
0.5625
0.5625
0.5625
0.5625
0.5625
0.5625
0.5625
0.5625
0.5625
0.5625
0.5625
0.5625
0.5625
0.5625
0.5625
0.5625
0.5625
0.562355
0.562429
0.562476
0.562494
0.562499
0.5625
0.5625
0.5625
0.5625
0.5625
0.167851
0.172266
0.178006
0.185147
0.193868
0.204491
0.217621
0.234608
0.259729
0.314341
0.547398
0.562196
0.562496
0.5625
0.5625
0.5625
0.5625
0.5625
0.5625
0.5625
0.5625
0.5625
0.5625
0.5625
0.5625
0.5625
0.5625
0.5625
0.5625
0.5625
0.562459
0.56248
0.562493
0.562498
0.5625
0.5625
0.5625
0.5625
0.5625
0.5625
0.176327
0.180812
0.186594
0.193766
0.202533
0.213251
0.226594
0.244136
0.271352
0.334916
0.550482
0.562276
0.562497
0.5625
0.5625
0.5625
0.5625
0.5625
0.5625
0.5625
0.5625
0.5625
0.5625
0.5625
0.5625
0.5625
0.5625
0.5625
0.5625
0.5625
0.562488
0.562495
0.562498
0.5625
0.5625
0.5625
0.5625
0.5625
0.5625
0.5625
0.18466
0.18922
0.195038
0.202228
0.211019
0.221806
0.235345
0.253539
0.283491
0.358098
0.553317
0.562342
0.562498
0.5625
0.5625
0.5625
0.5625
0.5625
0.5625
0.5625
0.5625
0.5625
0.5625
0.5625
0.5625
0.5625
0.5625
0.5625
0.5625
0.5625
0.562497
0.562499
0.5625
0.5625
0.5625
0.5625
0.5625
0.5625
0.5625
0.5625
0.192905
0.19754
0.203383
0.210569
0.219355
0.230177
0.243899
0.26293
0.296298
0.384103
0.555772
0.562393
0.562499
0.5625
0.5625
0.5625
0.5625
0.5625
0.5625
0.5625
0.5625
0.5625
0.5625
0.5625
0.5625
0.5625
0.5625
0.5625
0.5625
0.5625
0.562499
0.5625
0.5625
0.5625
0.5625
0.5625
0.5625
0.5625
0.5625
0.5625
0.201119
0.205825
0.211677
0.21883
0.227569
0.238378
0.252282
0.272522
0.310009
0.412345
0.557756
0.562429
0.562499
0.5625
0.5625
0.5625
0.5625
0.5625
0.5625
0.5625
0.5625
0.5625
0.5625
0.5625
0.5625
0.5625
0.5625
0.5625
0.5625
0.5625
0.5625
0.5625
0.5625
0.5625
0.5625
0.5625
0.5625
0.5625
0.5625
0.5625
0.209362
0.214133
0.219969
0.227047
0.235682
0.24642
0.260543
0.282399
0.32489
0.441038
0.559245
0.562454
0.562499
0.5625
0.5625
0.5625
0.5625
0.5625
0.5625
0.5625
0.5625
0.5625
0.5625
0.5625
0.5625
0.5625
0.5625
0.5625
0.5625
0.5625
0.5625
0.5625
0.5625
0.5625
0.5625
0.5625
0.5625
0.5625
0.5625
0.5625
0.217705
0.222528
0.228313
0.235261
0.243718
0.254326
0.268791
0.292566
0.341119
0.467494
0.560285
0.56247
0.5625
0.5625
0.5625
0.5625
0.5625
0.5625
0.5625
0.5625
0.5625
0.5625
0.5625
0.5625
0.5625
0.5625
0.5625
0.5625
0.5625
0.5625
0.5625
0.5625
0.5625
0.5625
0.5625
0.5625
0.5625
0.5625
0.5625
0.5625
0.226228
0.231081
0.23677
0.243517
0.251712
0.262153
0.277214
0.303012
0.358542
0.489292
0.560965
0.56248
0.5625
0.5625
0.5625
0.5625
0.5625
0.5625
0.5625
0.5625
0.5625
0.5625
0.5625
0.5625
0.5625
0.5625
0.5625
0.5625
0.5625
0.5625
0.5625
0.5625
0.5625
0.5625
0.5625
0.5625
0.5625
0.5625
0.5625
0.5625
0.235024
0.239878
0.245414
0.251884
0.259745
0.270053
0.285813
0.313636
0.376344
0.505251
0.561382
0.562486
0.5625
0.5625
0.5625
0.5625
0.5625
0.5625
0.5625
0.5625
0.5625
0.5625
0.5625
0.5625
0.5625
0.5625
0.5625
0.5625
0.5625
0.5625
0.5625
0.5625
0.5625
0.5625
0.5625
0.5625
0.5625
0.5625
0.5625
0.5625
0.244217
0.249038
0.254367
0.260503
0.268021
0.278374
0.294616
0.324199
0.392815
0.515242
0.561606
0.562489
0.5625
0.5625
0.5625
0.5625
0.5625
0.5625
0.5625
0.5625
0.5625
0.5625
0.5625
0.5625
0.5625
0.5625
0.5625
0.5625
0.5625
0.5625
0.5625
0.5625
0.5625
0.5625
0.5625
0.5625
0.5625
0.5625
0.5625
0.5625
0.254015
0.258782
0.26389
0.269725
0.277073
0.287433
0.303775
0.334367
0.405575
0.519221
0.561663
0.562489
0.5625
0.5625
0.5625
0.5625
0.5625
0.5625
0.5625
0.5625
0.5625
0.5625
0.5625
0.5625
0.5625
0.5625
0.5625
0.5625
0.5625
0.5625
0.5625
0.5625
0.5625
0.5625
0.5625
0.5625
0.5625
0.5625
0.5625
0.5625
0.264876
0.269648
0.274676
0.280453
0.287699
0.297789
0.313752
0.343998
0.412581
0.516149
0.561497
0.562488
0.5625
0.5625
0.5625
0.5625
0.5625
0.5625
0.5625
0.5625
0.5625
0.5625
0.5625
0.5625
0.5625
0.5625
0.5625
0.5625
0.5625
0.5625
0.5625
0.5625
0.5625
0.5625
0.5625
0.5625
0.5625
0.5625
0.5625
0.5625
0.278016
0.283012
0.288178
0.29395
0.301021
0.310674
0.325767
0.353917
0.41393
0.503356
0.560779
0.56248
0.5625
0.5625
0.5625
0.5625
0.5625
0.5625
0.5625
0.5625
0.5625
0.5625
0.5625
0.5625
0.5625
0.5625
0.5625
0.5625
0.5625
0.5625
0.5625
0.5625
0.5625
0.5625
0.5625
0.5625
0.5625
0.5625
0.5625
0.5625
0.295372
0.300842
0.306358
0.312332
0.3194
0.328724
0.342779
0.367544
0.414593
0.480077
0.504255
0.529883
0.548206
0.557338
0.560844
0.562001
0.562355
0.562459
0.562488
0.562497
0.562499
0.5625
0.5625
0.5625
0.5625
0.5625
0.5625
0.5625
0.5625
0.5625
0.5625
0.5625
0.5625
0.5625
0.5625
0.5625
0.5625
0.5625
0.5625
0.5625
0.320303
0.326792
0.333208
0.339957
0.347653
0.35739
0.371355
0.394141
0.432046
0.479747
0.513842
0.539508
0.553758
0.559639
0.561638
0.562251
0.562429
0.56248
0.562495
0.562499
0.5625
0.5625
0.5625
0.5625
0.5625
0.5625
0.5625
0.5625
0.5625
0.5625
0.5625
0.5625
0.5625
0.5625
0.5625
0.5625
0.5625
0.5625
0.5625
0.5625
0.359403
0.367861
0.376133
0.384658
0.39409
0.405546
0.421039
0.443854
0.476075
0.511173
0.537492
0.552602
0.559151
0.561468
0.562198
0.562414
0.562476
0.562493
0.562498
0.5625
0.5625
0.5625
0.5625
0.5625
0.5625
0.5625
0.5625
0.5625
0.5625
0.5625
0.5625
0.5625
0.5625
0.5625
0.5625
0.5625
0.5625
0.5625
0.5625
0.5625
0.421296
0.431945
0.442084
0.452149
0.462747
0.474758
0.489348
0.507389
0.527349
0.544336
0.554837
0.559741
0.561605
0.562228
0.562421
0.562477
0.562494
0.562498
0.5625
0.5625
0.5625
0.5625
0.5625
0.5625
0.5625
0.5625
0.5625
0.5625
0.5625
0.5625
0.5625
0.5625
0.5625
0.5625
0.5625
0.5625
0.5625
0.5625
0.5625
0.5625
0.496795
0.505327
0.512903
0.51986
0.526568
0.533381
0.540517
0.547742
0.554096
0.55852
0.560906
0.561937
0.562318
0.562444
0.562484
0.562495
0.562499
0.5625
0.5625
0.5625
0.5625
0.5625
0.5625
0.5625
0.5625
0.5625
0.5625
0.5625
0.5625
0.5625
0.5625
0.5625
0.5625
0.5625
0.5625
0.5625
0.5625
0.5625
0.5625
0.5625
0.545042
0.548095
0.550647
0.552848
0.554826
0.556671
0.558404
0.55994
0.561123
0.561869
0.56225
0.562411
0.562471
0.562491
0.562497
0.562499
0.5625
0.5625
0.5625
0.5625
0.5625
0.5625
0.5625
0.5625
0.5625
0.5625
0.5625
0.5625
0.5625
0.5625
0.5625
0.5625
0.5625
0.5625
0.5625
0.5625
0.5625
0.5625
0.5625
0.5625
0.559602
0.560173
0.560642
0.561038
0.561382
0.561688
0.561956
0.562175
0.562331
0.562424
0.56247
0.562489
0.562496
0.562499
0.5625
0.5625
0.5625
0.5625
0.5625
0.5625
0.5625
0.5625
0.5625
0.5625
0.5625
0.5625
0.5625
0.5625
0.5625
0.5625
0.5625
0.5625
0.5625
0.5625
0.5625
0.5625
0.5625
0.5625
0.5625
0.5625
0.562171
0.56224
0.562297
0.562344
0.562384
0.562419
0.562448
0.56247
0.562485
0.562493
0.562497
0.562499
0.5625
0.5625
0.5625
0.5625
0.5625
0.5625
0.5625
0.5625
0.5625
0.5625
0.5625
0.5625
0.5625
0.5625
0.5625
0.5625
0.5625
0.5625
0.5625
0.5625
0.5625
0.5625
0.5625
0.5625
0.5625
0.5625
0.5625
0.5625
0.562476
0.562481
0.562486
0.562489
0.562492
0.562495
0.562497
0.562498
0.562499
0.5625
0.5625
0.5625
0.5625
0.5625
0.5625
0.5625
0.5625
0.5625
0.5625
0.5625
0.5625
0.5625
0.5625
0.5625
0.5625
0.5625
0.5625
0.5625
0.5625
0.5625
0.5625
0.5625
0.5625
0.5625
0.5625
0.5625
0.5625
0.5625
0.5625
0.5625
0.562499
0.562499
0.5625
0.5625
0.5625
0.5625
0.5625
0.5625
0.5625
0.5625
0.5625
0.5625
0.5625
0.5625
0.5625
0.5625
0.5625
0.5625
0.5625
0.5625
0.5625
0.5625
0.5625
0.5625
0.5625
0.5625
0.5625
0.5625
0.5625
0.5625
0.5625
0.5625
0.5625
0.5625
0.5625
0.5625
0.5625
0.5625
0.5625
0.5625
0.00188216
0.00457002
0.0094434
0.0162907
0.0246769
0.0341413
0.0442829
0.0547891
0.0654399
0.0760751
0.086546
0.0967437
0.106603
0.116097
0.125232
0.134037
0.142531
0.150751
0.158737
0.166534
0.174189
0.181755
0.18929
0.196861
0.204554
0.21248
0.220799
0.229755
0.23975
0.251435
0.26588
0.285165
0.313529
0.359318
0.432201
0.512168
0.552168
0.561221
0.562402
0.562496
0.00456784
0.00803281
0.0134256
0.0205206
0.0289745
0.0384101
0.0484855
0.0589268
0.069537
0.080145
0.0905971
0.100783
0.110638
0.120133
0.129279
0.138097
0.146606
0.154841
0.162842
0.170651
0.178314
0.18588
0.193406
0.200957
0.208615
0.216491
0.224747
0.233637
0.243582
0.255249
0.269769
0.289358
0.318547
0.366125
0.440839
0.518034
0.55375
0.56144
0.56242
0.562497
0.00944423
0.0134258
0.0191625
0.0264014
0.0348465
0.0441884
0.054145
0.0644872
0.0750296
0.0855853
0.0959974
0.106153
0.115984
0.125463
0.134603
0.143409
0.151905
0.160123
0.168102
0.17588
0.183501
0.19101
0.19846
0.205913
0.213447
0.221172
0.229255
0.23796
0.247725
0.259221
0.273645
0.293361
0.323209
0.372449
0.448806
0.523193
0.555098
0.561627
0.562436
0.562498
0.0162918
0.0205201
0.0264009
0.0336558
0.0420157
0.0512232
0.0610477
0.0712972
0.0817735
0.0922825
0.102663
0.112797
0.12261
0.132083
0.141212
0.150001
0.158473
0.166662
0.174599
0.182324
0.189875
0.197295
0.204629
0.211934
0.219285
0.226789
0.234613
0.243029
0.252468
0.263611
0.277737
0.297375
0.327723
0.378571
0.45646
0.527906
0.556286
0.56179
0.562449
0.562498
0.0246771
0.0289734
0.0348457
0.0420153
0.0502404
0.0593055
0.0690255
0.079211
0.0896545
0.100159
0.110555
0.120709
0.130548
0.140046
0.149184
0.157973
0.166436
0.174605
0.182512
0.190191
0.197679
0.205013
0.212232
0.219386
0.226542
0.233798
0.241312
0.249341
0.258275
0.268834
0.282394
0.301702
0.332396
0.384911
0.464307
0.532467
0.557385
0.561938
0.562461
0.562499
0.0341408
0.0384089
0.0441875
0.0512227
0.0593053
0.068263
0.0779252
0.0880996
0.0985857
0.109182
0.119696
0.129969
0.139926
0.149509
0.158712
0.167551
0.176054
0.184253
0.192181
0.199873
0.207361
0.214678
0.221859
0.228942
0.235979
0.243045
0.250246
0.257764
0.265975
0.275629
0.28823
0.306852
0.337746
0.392182
0.473103
0.537191
0.558452
0.562076
0.562472
0.562499
0.0442823
0.0484844
0.0541442
0.0610472
0.0690253
0.0779251
0.0875866
0.0978418
0.108509
0.119381
0.130218
0.140807
0.151016
0.160803
0.170181
0.17918
0.187836
0.196189
0.204279
0.21214
0.219809
0.227316
0.234691
0.241961
0.249123
0.256168
0.263111
0.270048
0.277272
0.285522
0.296477
0.313823
0.344773
0.401695
0.483953
0.542347
0.55951
0.562204
0.562481
0.562499
0.0547885
0.0589259
0.0644865
0.0712967
0.0792107
0.0880994
0.0978417
0.10832
0.119402
0.130898
0.142501
0.153727
0.16444
0.174654
0.184428
0.193822
0.202895
0.211705
0.220304
0.22874
0.237062
0.245293
0.253433
0.261457
0.269311
0.276888
0.284031
0.290573
0.296508
0.302393
0.31015
0.32493
0.355644
0.415972
0.498254
0.547978
0.56052
0.562315
0.562489
0.5625
0.0654395
0.0695363
0.075029
0.0817731
0.0896542
0.0985855
0.108509
0.119402
0.131275
0.144132
0.157562
0.170084
0.181802
0.192927
0.203623
0.214016
0.224213
0.234312
0.244405
0.254544
0.264766
0.275115
0.285626
0.296298
0.30703
0.317515
0.327093
0.334664
0.338945
0.339488
0.338648
0.346375
0.37529
0.439378
0.516649
0.553561
0.561376
0.5624
0.562494
0.5625
0.0760748
0.0801445