/*--------------------------------*- C++ -*----------------------------------*\
| =========                 |                                                 |
| \\      /  F ield         | OpenFOAM: The Open Source CFD Toolbox           |
|  \\    /   O peration     | Version:  2.1.0                                 |
|   \\  /    A nd           | Web:      www.OpenFOAM.org                      |
|    \\/     M anipulation  |                                                 |
\*---------------------------------------------------------------------------*/
FoamFile
{
    version     2.0;
    format      ascii;
    class       volScalarField;
    location    "16060";
    object      kr_w;
}
// * * * * * * * * * * * * * * * * * * * * * * * * * * * * * * * * * * * * * //

dimensions      [0 0 0 0 0 0 0];

internalField   nonuniform List<scalar> 
8000
(
0.355806
0.333269
0.307514
0.281764
0.25746
0.235097
0.214743
0.196351
0.179818
0.165003
0.151741
0.13986
0.129189
0.119583
0.110913
0.103031
0.0958042
0.0891203
0.0828791
0.0769921
0.0713798
0.0659698
0.0606956
0.0554924
0.0502866
0.044996
0.039534
0.0338277
0.0278661
0.0217844
0.0157083
0.00992058
0.00509354
0.00195168
0.000532337
0.000106943
1.62166e-05
1.78298e-06
1.2734e-07
4.44852e-09
0.333272
0.314011
0.291602
0.268722
0.246692
0.22606
0.207027
0.189652
0.173906
0.159701
0.146915
0.135406
0.125031
0.11567
0.107196
0.0994672
0.0923615
0.0857704
0.0795986
0.0737618
0.0681847
0.0628002
0.0575477
0.0523629
0.0471744
0.0419055
0.0364815
0.0308535
0.0250573
0.019272
0.0136198
0.00840559
0.00421144
0.00157245
0.000419508
8.31025e-05
1.24701e-05
1.35851e-06
9.624e-08
3.33913e-09
0.307514
0.291603
0.272703
0.252921
0.233414
0.214769
0.197294
0.181139
0.166346
0.152886
0.140685
0.12964
0.119646
0.110608
0.102397
0.0948837
0.0879537
0.0815064
0.0754531
0.0697154
0.0642251
0.0589234
0.053753
0.0486516
0.0435539
0.0383937
0.0331153
0.0277034
0.0222461
0.0169054
0.0117708
0.00713964
0.00350213
0.00127243
0.000330786
6.42849e-05
9.49207e-06
1.01895e-06
7.12355e-08
2.44382e-09
0.281765
0.268722
0.252921
0.235968
0.218848
0.20216
0.186265
0.171368
0.157568
0.14489
0.133308
0.122765
0.113201
0.104524
0.0966097
0.0893412
0.0826139
0.0763347
0.0704227
0.0648083
0.0594336
0.0542458
0.0491904
0.0442129
0.0392604
0.0342874
0.0292699
0.0242379
0.0193145
0.0145516
0.0100329
0.00601343
0.00289619
0.00102324
0.000258559
4.908e-05
7.09268e-06
7.4617e-07
5.12252e-08
1.73029e-09
0.257461
0.246692
0.233414
0.218849
0.203832
0.188927
0.174501
0.160786
0.147922
0.13598
0.124985
0.114935
0.105803
0.0974819
0.0898619
0.0828359
0.0763074
0.070192
0.0644182
0.0589287
0.0536726
0.0486002
0.0436663
0.0388326
0.0340719
0.029377
0.0247752
0.0203479
0.0161289
0.0120976
0.00831332
0.00495439
0.00234816
0.000805324
0.000197213
3.64084e-05
5.12411e-06
5.25812e-07
3.53013e-08
1.17013e-09
0.235097
0.22606
0.214769
0.20216
0.188927
0.175567
0.162424
0.149739
0.137675
0.126347
0.115845
0.106238
0.0974771
0.0894662
0.0821007
0.0752799
0.0689145
0.0629301
0.0572686
0.051877
0.0467077
0.0417222
0.0368957
0.0322238
0.0277303
0.0234736
0.0195344
0.0159095
0.0125638
0.00945308
0.00654663
0.0039126
0.00182753
0.000606319
0.000143397
2.56513e-05
3.50336e-06
3.49618e-07
2.29029e-08
7.43771e-10
0.214743
0.207027
0.197295
0.186265
0.174501
0.162424
0.150341
0.138479
0.127011
0.116101
0.105941
0.0966271
0.0881212
0.0803264
0.0731336
0.0664436
0.0601761
0.0542667
0.0486563
0.0432965
0.0381551
0.0332236
0.0285272
0.0241332
0.0201344
0.0165689
0.0134717
0.0108403
0.00860162
0.00661429
0.00471855
0.00286643
0.0013207
0.000422217
9.6283e-05
1.66757e-05
2.20983e-06
2.14578e-07
1.3727e-08
4.37089e-10
0.196351
0.189652
0.18114
0.171368
0.160787
0.149739
0.138479
0.127195
0.116052
0.105272
0.0951022
0.0858195
0.0773808
0.069652
0.0625055
0.0558428
0.0495792
0.0436448
0.0379919
0.0326043
0.0275097
0.0227837
0.0184822
0.0146868
0.0114966
0.0089619
0.00705167
0.00566207
0.00464143
0.00380096
0.0029227
0.00184996
0.000844461
0.000260651
5.76391e-05
9.72036e-06
1.25661e-06
1.19307e-07
7.48333e-09
2.34311e-10
0.179818
0.173907
0.166346
0.157568
0.147922
0.137675
0.127011
0.116053
0.104911
0.0936659
0.0826478
0.0729422
0.0642842
0.0564121
0.049144
0.0423522
0.0359582
0.0299397
0.0243439
0.0192171
0.0146505
0.0107933
0.00774598
0.00549233
0.00391429
0.00285851
0.0021886
0.00180078
0.00161463
0.00154251
0.00142963
0.000996025
0.000458133
0.000138518
3.01066e-05
4.99687e-06
6.35851e-07
5.94634e-08
3.67728e-09
1.13644e-10
0.165003
0.159702
0.152886
0.14489
0.135981
0.126347
0.116101
0.105272
0.0936659
0.0806901
0.0655246
0.0546736
0.045415
0.0370932
0.0294928
0.0226333
0.0166962
0.0118018
0.00799799
0.00522958
0.00332774
0.00208069
0.00129493
0.000817021
0.000534708
0.000373007
0.000287357
0.000256298
0.000278073
0.000370558
0.000540851
0.000453209
0.00021244
6.35266e-05
1.36999e-05
2.25931e-06
2.85552e-07
2.65014e-08
1.6249e-09
4.97448e-11
0.151742
0.146915
0.140685
0.133309
0.124985
0.115845
0.105941
0.0951023
0.0826479
0.0655246
0.00153822
0.000923079
0.000852486
0.000721475
0.00057169
0.000427926
0.000303932
0.000205734
0.000133661
8.40968e-05
5.17523e-05
3.15022e-05
1.92343e-05
1.19835e-05
7.77886e-06
5.40848e-06
4.19451e-06
3.85443e-06
4.56199e-06
7.65953e-06
0.000299979
0.000205812
8.79971e-05
2.55293e-05
5.47944e-06
9.0514e-07
1.14546e-07
1.06192e-08
6.48574e-10
1.9726e-11
0.13986
0.135406
0.129641
0.122765
0.114935
0.106239
0.0966272
0.0858195
0.0729422
0.0546736
0.000923079
2.61086e-05
1.34151e-05
1.14569e-05
8.95888e-06
6.51649e-06
4.47234e-06
2.92735e-06
1.84542e-06
1.13117e-06
6.80849e-07
4.06924e-07
2.44688e-07
1.50351e-07
9.62808e-08
6.60565e-08
5.05926e-08
4.59009e-08
5.30439e-08
8.02329e-08
0.000135443
8.21818e-05
3.26371e-05
9.22974e-06
1.9774e-06
3.28323e-07
4.17528e-08
3.87837e-09
2.36467e-10
7.15417e-12
0.129189
0.125031
0.119646
0.113201
0.105803
0.0974772
0.0881213
0.0773808
0.0642842
0.045415
0.000852485
1.34151e-05
3.17341e-07
1.43784e-07
1.12386e-07
8.13433e-08
5.51193e-08
3.54957e-08
2.1988e-08
1.32426e-08
7.83585e-09
4.60615e-09
2.72295e-09
1.64211e-09
1.0291e-09
6.87889e-10
5.0922e-10
4.393e-10
4.6533e-10
5.89018e-10
5.2228e-05
2.92675e-05
1.10761e-05
3.08359e-06
6.61015e-07
1.10356e-07
1.41024e-08
1.31242e-09
7.98682e-11
2.40302e-12
0.119583
0.11567
0.110609
0.104524
0.0974821
0.0894663
0.0803265
0.069652
0.0564121
0.0370932
0.000721475
1.14569e-05
1.43784e-07
2.96865e-09
1.20856e-09
8.69927e-10
5.87852e-10
3.75656e-10
2.30173e-10
1.3683e-10
7.97826e-11
4.61233e-11
2.67403e-11
1.57538e-11
9.59296e-12
6.18097e-12
4.35349e-12
3.49546e-12
3.31989e-12
3.54262e-12
1.80438e-05
9.59708e-06
3.52732e-06
9.73743e-07
2.09021e-07
3.50348e-08
4.48988e-09
4.1785e-10
2.53405e-11
7.57442e-13
0.110913
0.107196
0.102397
0.0966099
0.089862
0.0821008
0.0731337
0.0625056
0.0491441
0.0294928
0.000571689
8.95888e-06
1.12386e-07
1.20856e-09
2.23242e-11
8.29525e-12
5.55375e-12
3.53581e-12
2.14999e-12
1.26422e-12
7.26944e-13
4.12962e-13
2.34359e-13
1.34455e-13
7.91918e-14
4.88213e-14
3.24724e-14
2.40804e-14
2.05243e-14
1.88382e-14
5.80607e-06
2.98218e-06
1.07625e-06
2.95591e-07
6.34814e-08
1.0656e-08
1.3657e-09
1.26779e-10
7.64608e-12
2.26856e-13
0.103031
0.0994673
0.0948838
0.0893414
0.082836
0.07528
0.0664436
0.0558428
0.0423522
0.0226333
0.000427926
6.51649e-06
8.13433e-08
8.69927e-10
8.29525e-12
1.39907e-13
4.82085e-14
3.0326e-14
1.83048e-14
1.06558e-14
5.94391e-15
3.24184e-15
1.69871e-15
8.22367e-16
3.30217e-16
1.20656e-16
1.20656e-16
6.98536e-17
6.35033e-18
0
1.78784e-06
8.96051e-07
3.19156e-07
8.72489e-08
1.87107e-08
3.1368e-09
4.00929e-10
3.70347e-11
2.21703e-12
6.53925e-14
0.0958043
0.0923616
0.0879538
0.082614
0.0763075
0.0689146
0.0601762
0.0495792
0.0359582
0.0166962
0.000303932
4.47234e-06
5.51193e-08
5.87852e-10
5.55375e-12
4.82085e-14
3.11166e-16
9.52549e-17
0
0
0
0
0
0
0
0
0
0
0
0
5.35482e-07
2.63424e-07
9.2761e-08
2.5216e-08
5.3884e-09
9.00029e-10
1.14469e-10
1.05018e-11
6.23256e-13
1.84064e-14
0.0891204
0.0857705
0.0815066
0.0763348
0.0701921
0.0629302
0.0542668
0.0436448
0.0299397
0.0118018
0.000205734
2.92735e-06
3.54957e-08
3.75656e-10
3.53581e-12
3.0326e-14
9.52549e-17
0
0
0
0
0
0
0
0
0
0
0
0
0
1.57183e-07
7.6185e-08
2.65333e-08
7.16328e-09
1.52273e-09
2.52995e-10
3.19736e-11
2.91044e-12
1.71281e-13
5.12154e-15
0.0828792
0.0795987
0.0754532
0.0704228
0.0644183
0.0572686
0.0486564
0.0379919
0.0243439
0.00799799
0.000133661
1.84542e-06
2.1988e-08
2.30173e-10
2.14999e-12
1.83048e-14
0
0
0
0
0
0
0
0
0
0
0
0
0
0
4.52893e-08
2.16904e-08
7.47788e-09
2.00411e-09
4.23464e-10
6.99431e-11
8.78066e-12
7.9313e-13
4.64368e-14
1.39707e-15
0.0769922
0.0737619
0.0697155
0.0648084
0.0589288
0.0518771
0.0432965
0.0326044
0.0192171
0.00522959
8.40969e-05
1.13117e-06
1.32426e-08
1.3683e-10
1.26422e-12
1.06558e-14
0
0
0
0
0
0
0
0
0
0
0
0
0
0
1.2813e-08
6.07627e-09
2.07596e-09
5.52666e-10
1.16139e-10
1.90816e-11
2.38167e-12
2.13911e-13
1.25609e-14
3.20692e-16
0.0713799
0.0681848
0.0642252
0.0594337
0.0536727
0.0467078
0.0381551
0.0275097
0.0146506
0.00332775
5.17523e-05
6.80849e-07
7.83585e-09
7.97826e-11
7.26944e-13
5.94391e-15
0
0
0
0
0
0
0
0
0
0
0
0
0
0
3.5574e-09
1.67332e-09
5.67443e-10
1.50305e-10
3.14712e-11
5.15424e-12
6.41272e-13
5.75562e-14
3.43235e-15
5.71529e-17
0.0659698
0.0628003
0.0589235
0.0542459
0.0486003
0.0417222
0.0332236
0.0227837
0.0107933
0.00208069
3.15023e-05
4.06924e-07
4.60615e-09
4.61233e-11
4.12962e-13
3.24184e-15
0
0
0
0
0
0
0
0
0
0
0
0
0
0
9.68009e-10
4.52397e-10
1.52631e-10
4.03396e-11
8.4436e-12
1.3836e-12
1.72424e-13
1.56313e-14
9.36673e-16
0
0.0606957
0.0575478
0.053753
0.0491905
0.0436664
0.0368958
0.0285272
0.0184822
0.007746
0.00129493
1.92343e-05
2.44688e-07
2.72295e-09
2.67404e-11
2.34359e-13
1.69871e-15
0
0
0
0
0
0
0
0
0
0
0
0
0
0
2.57616e-10
1.19861e-10
4.03721e-11
1.06928e-11
2.24874e-12
3.70872e-13
4.67003e-14
4.3341e-15
1.87335e-16
0
0.0554925
0.0523629
0.0486517
0.0442129
0.0388326
0.0322239
0.0241332
0.0146868
0.00549234
0.000817022
1.19835e-05
1.50352e-07
1.64211e-09
1.57538e-11
1.34455e-13
8.22367e-16
0
0
0
0
0
0
0
0
0
0
0
0
0
0
6.68443e-11
3.10456e-11
1.0492e-11
2.80237e-12
5.96527e-13
9.99224e-14
1.29102e-14
1.24466e-15
0
0
0.0502866
0.0471744
0.043554
0.0392605
0.0340719
0.0277303
0.0201345
0.0114966
0.0039143
0.000534709
7.77887e-06
9.62809e-08
1.0291e-09
9.59297e-12
7.91918e-14
3.30217e-16
0
0
0
0
0
0
0
0
0
0
0
0
0
0
1.68345e-11
7.83506e-12
2.67602e-12
7.27262e-13
1.58349e-13
2.73191e-14
3.70542e-15
3.11166e-16
0
0
0.044996
0.0419055
0.0383938
0.0342874
0.0293771
0.0234736
0.0165689
0.00896192
0.00285851
0.000373008
5.40849e-06
6.60566e-08
6.8789e-10
6.18097e-12
4.88213e-14
1.20656e-16
0
0
0
0
0
0
0
0
0
0
0
0
0
0
4.088e-12
1.91777e-12
6.68877e-13
1.87316e-13
4.23503e-14
7.67755e-15
1.09861e-15
6.98536e-17
0
0
0.0395341
0.0364815
0.0331154
0.0292699
0.0247753
0.0195344
0.0134717
0.00705168
0.0021886
0.000287357
4.19452e-06
5.05927e-08
5.09221e-10
4.3535e-12
3.24724e-14
1.20656e-16
0
0
0
0
0
0
0
0
0
0
0
0
0
0
9.47678e-13
4.52321e-13
1.63559e-13
4.80561e-14
1.15385e-14
2.26389e-15
2.85765e-16
0
0
0
0.0338277
0.0308536
0.0277034
0.024238
0.0203479
0.0159096
0.0108403
0.00566209
0.00180079
0.000256298
3.85444e-06
4.59009e-08
4.393e-10
3.49546e-12
2.40804e-14
6.98536e-17
0
0
0
0
0
0
0
0
0
0
0
0
0
0
2.06436e-13
1.01907e-13
3.91148e-14
1.23704e-14
3.26089e-15
6.73135e-16
6.98536e-17
0
0
0
0.0278661
0.0250573
0.0222462
0.0193145
0.016129
0.0125638
0.00860163
0.00464144
0.00161463
0.000278074
4.562e-06
5.3044e-08
4.6533e-10
3.31989e-12
2.05243e-14
6.35033e-18
0
0
0
0
0
0
0
0
0
0
0
0
0
0
4.11596e-14
2.16768e-14
9.18257e-15
3.22597e-15
9.36673e-16
1.36532e-16
0
0
0
0
0.0217845
0.019272
0.0169055
0.0145516
0.0120976
0.0094531
0.00661431
0.00380097
0.00154251
0.000370559
7.65955e-06
8.02331e-08
5.89019e-10
3.54262e-12
1.88382e-14
0
0
0
0
0
0
0
0
0
0
0
0
0
0
0
7.06474e-15
4.27059e-15
2.09243e-15
8.31893e-16
2.09561e-16
0
0
0
0
0
0.0157083
0.0136199
0.0117708
0.0100329
0.00831334
0.00654664
0.00471856
0.00292271
0.00142964
0.000540853
0.00029998
0.000135443
5.22282e-05
1.80439e-05
5.80609e-06
1.78784e-06
5.35483e-07
1.57184e-07
4.52894e-08
1.2813e-08
3.5574e-09
9.6801e-10
2.57616e-10
6.68444e-11
1.68344e-11
4.088e-12
9.47678e-13
2.06436e-13
4.11596e-14
7.06474e-15
1.53678e-15
8.00141e-16
4.28647e-16
1.36532e-16
9.52549e-18
0
0
0
0
0
0.00992059
0.00840561
0.00713966
0.00601344
0.0049544
0.00391261
0.00286644
0.00184996
0.000996028
0.000453211
0.000205813
8.21821e-05
2.92676e-05
9.59711e-06
2.98219e-06
8.96053e-07
2.63425e-07
7.61852e-08
2.16904e-08
6.07628e-09
1.67332e-09
4.52398e-10
1.19861e-10
3.10456e-11
7.83506e-12
1.91777e-12
4.52321e-13
1.01907e-13
2.16768e-14
4.27059e-15
8.00141e-16
1.46058e-16
8.57294e-17
0
0
0
0
0
0
0
0.00509355
0.00421145
0.00350214
0.00289619
0.00234816
0.00182754
0.0013207
0.000844464
0.000458134
0.00021244
8.79974e-05
3.26372e-05
1.10762e-05
3.52733e-06
1.07625e-06
3.19157e-07
9.27612e-08
2.65333e-08
7.4779e-09
2.07597e-09
5.67443e-10
1.52631e-10
4.03721e-11
1.0492e-11
2.67602e-12
6.68877e-13
1.63559e-13
3.91148e-14
9.18257e-15
2.09243e-15
4.28647e-16
8.57294e-17
0
0
0
0
0
0
0
0
0.00195168
0.00157245
0.00127243
0.00102324
0.000805327
0.000606322
0.000422219
0.000260652
0.000138518
6.35268e-05
2.55294e-05
9.22977e-06
3.0836e-06
9.73745e-07
2.95592e-07
8.72491e-08
2.5216e-08
7.16329e-09
2.00411e-09
5.52666e-10
1.50305e-10
4.03396e-11
1.06928e-11
2.80237e-12
7.27262e-13
1.87316e-13
4.80561e-14
1.23704e-14
3.22597e-15
8.31893e-16
1.36532e-16
0
0
0
0
0
0
0
0
0
0.000532338
0.000419509
0.000330787
0.000258559
0.000197213
0.000143397
9.62834e-05
5.76393e-05
3.01067e-05
1.36999e-05
5.47946e-06
1.9774e-06
6.61017e-07
2.09022e-07
6.34815e-08
1.87108e-08
5.38841e-09
1.52273e-09
4.23465e-10
1.16139e-10
3.14712e-11
8.4436e-12
2.24874e-12
5.96527e-13
1.58349e-13
4.23503e-14
1.15385e-14
3.26089e-15
9.36673e-16
2.09561e-16
9.52549e-18
0
0
0
0
0
0
0
0
0
0.000106944
8.31028e-05
6.42851e-05
4.90802e-05
3.64085e-05
2.56514e-05
1.66757e-05
9.7204e-06
4.99689e-06
2.25932e-06
9.05143e-07
3.28324e-07
1.10356e-07
3.50349e-08
1.06561e-08
3.1368e-09
9.00031e-10
2.52995e-10
6.99432e-11
1.90816e-11
5.15424e-12
1.3836e-12
3.70872e-13
9.99224e-14
2.73191e-14
7.67755e-15
2.26389e-15
6.73135e-16
1.36532e-16
0
0
0
0
0
0
0
0
0
0
0
1.62166e-05
1.24702e-05
9.49211e-06
7.0927e-06
5.12413e-06
3.50337e-06
2.20984e-06
1.25661e-06
6.35853e-07
2.85553e-07
1.14547e-07
4.17529e-08
1.41025e-08
4.48989e-09
1.3657e-09
4.0093e-10
1.14469e-10
3.19737e-11
8.7807e-12
2.38169e-12
6.41272e-13
1.72424e-13
4.67003e-14
1.29102e-14
3.70542e-15
1.09861e-15
2.85765e-16
6.98536e-17
0
0
0
0
0
0
0
0
0
0
0
0
1.78298e-06
1.35852e-06
1.01895e-06
7.46173e-07
5.25814e-07
3.49619e-07
2.14579e-07
1.19308e-07
5.94636e-08
2.65015e-08
1.06193e-08
3.87838e-09
1.31243e-09
4.17851e-10
1.2678e-10
3.70348e-11
1.05018e-11
2.91044e-12
7.9313e-13
2.13911e-13
5.75562e-14
1.56313e-14
4.3341e-15
1.24466e-15
3.11166e-16
6.98536e-17
0
0
0
0
0
0
0
0
0
0
0
0
0
0
1.2734e-07
9.62403e-08
7.12358e-08
5.12254e-08
3.53014e-08
2.2903e-08
1.37271e-08
7.48336e-09
3.67729e-09
1.62491e-09
6.48576e-10
2.36467e-10
7.98684e-11
2.53406e-11
7.6461e-12
2.21705e-12
6.23256e-13
1.71281e-13
4.64368e-14
1.25609e-14
3.43235e-15
9.36673e-16
1.87335e-16
0
0
0
0
0
0
0
0
0
0
0
0
0
0
0
0
0
4.44854e-09
3.33914e-09
2.44383e-09
1.7303e-09
1.17013e-09
7.43774e-10
4.37091e-10
2.34312e-10
1.13644e-10
4.9745e-11
1.97261e-11
7.1542e-12
2.40302e-12
7.57442e-13
2.26856e-13
6.53925e-14
1.84064e-14
5.12154e-15
1.39707e-15
3.20692e-16
5.71529e-17
0
0
0
0
0
0
0
0
0
0
0
0
0
0
0
0
0
0
0
0.460931
0.427943
0.389782
0.352331
0.318132
0.287874
0.261416
0.238322
0.218101
0.200352
0.184745
0.170988
0.158812
0.147962
0.138217
0.129427
0.121443
0.114141
0.10741
0.101159
0.0953093
0.0897928
0.0845497
0.0795259
0.0746722
0.0699418
0.0652851
0.0606291
0.0558152
0.0504409
0.0440245
0.0360024
0.0257842
0.0141041
0.0049891
0.00112749
0.000178685
2.01255e-05
1.46373e-06
5.18539e-08
0.427952
0.399466
0.36665
0.333968
0.303539
0.276101
0.251709
0.23011
0.210989
0.194073
0.179112
0.165863
0.154091
0.143559
0.134081
0.125515
0.117723
0.110586
0.104002
0.0978846
0.0921597
0.0867644
0.0816429
0.0767456
0.0720279
0.0674473
0.0629558
0.0584732
0.0538089
0.0485175
0.04215
0.034121
0.0238966
0.0125293
0.0042151
0.000921228
0.000143239
1.5911e-05
1.14353e-06
4.00961e-08
0.389779
0.366652
0.33963
0.312096
0.285826
0.261588
0.239584
0.219749
0.201959
0.186068
0.171911
0.159302
0.148043
0.13792
0.128799
0.12054
0.113018
0.106122
0.0997584
0.0938483
0.0883242
0.0831283
0.0782101
0.0735257
0.0690353
0.0646997
0.0604677
0.0562378
0.0517625
0.0465949
0.0403269
0.0323376
0.0221483
0.0111287
0.00356316
0.000751832
0.000114186
1.24418e-05
8.78919e-07
3.03532e-08
0.35233
0.333971
0.312097
0.289237
0.266852
0.245683
0.226023
0.20798
0.191576
0.176771
0.163478
0.151565
0.140856
0.131207
0.122499
0.114604
0.107405
0.100804
0.0947169
0.0890707
0.0838055
0.0788698
0.0742197
0.0698179
0.0656297
0.0616157
0.0577114
0.0537771
0.0494947
0.0445226
0.0384258
0.0305406
0.0204429
0.00982758
0.0029921
0.000607996
8.97606e-05
9.53882e-06
6.58591e-07
2.22884e-08
0.318133
0.30354
0.285826
0.266852
0.247791
0.229304
0.211763
0.19539
0.180301
0.166539
0.154081
0.142838
0.132682
0.123531
0.115262
0.107759
0.100917
0.0946474
0.0888731
0.0835301
0.0785647
0.073933
0.0695989
0.0655309
0.0616959
0.0580457
0.0544856
0.0508111
0.0467704
0.0420898
0.0362705
0.0285856
0.0186634
0.00854749
0.00246547
0.00048037
6.85489e-05
7.06238e-06
4.73964e-07
1.56463e-08
0.287874
0.276102
0.261587
0.245682
0.229304
0.213054
0.197339
0.182426
0.168489
0.155634
0.143894
0.133226
0.123605
0.114936
0.107105
0.100003
0.0935335
0.0876137
0.0821738
0.0771561
0.0725139
0.0682097
0.0642114
0.0604865
0.0569893
0.0536414
0.0503009
0.0468679
0.0431877
0.0389459
0.0335759
0.026249
0.0166441
0.00720042
0.00195342
0.000362714
4.97325e-05
4.94113e-06
3.2096e-07
1.03031e-08
0.261417
0.251709
0.239583
0.226023
0.211763
0.197339
0.183133
0.169418
0.156395
0.14421
0.132953
0.122754
0.113593
0.105365
0.0979518
0.0912431
0.0851441
0.0795752
0.0744699
0.0697739
0.0654416
0.0614307
0.0576938
0.0541645
0.0507555
0.0474666
0.0442888
0.0411724
0.0379847
0.034413
0.0298123
0.0231466
0.0141435
0.00570088
0.00144072
0.000253501
3.32673e-05
3.17988e-06
1.99721e-07
6.2337e-09
0.238322
0.23011
0.219749
0.207979
0.195389
0.182426
0.169418
0.156608
0.144173
0.132258
0.121168
0.111239
0.102425
0.0945731
0.087534
0.0811838
0.0754206
0.0701592
0.065325
0.0608484
0.0566521
0.0526309
0.0487501
0.0450124
0.0414247
0.0380206
0.0348633
0.0320232
0.0295018
0.0270654
0.0239653
0.0186539
0.0108937
0.00403446
0.000944897
0.000157663
1.98557e-05
1.83276e-06
1.11763e-07
3.4047e-09
0.218101
0.210988
0.201958
0.191575
0.180301
0.168489
0.156395
0.144173
0.131877
0.119664
0.107995
0.0980081
0.0893742
0.0817736
0.0749866
0.0688561
0.0632534
0.0580528
0.0531077
0.0483364
0.0437021
0.0391562
0.034664
0.0302391
0.0259824
0.0221051
0.0188975
0.0166392
0.0154772
0.0152595
0.0151532
0.0125149
0.00705908
0.00240566
0.00052724
8.44838e-05
1.03289e-05
9.30141e-07
5.55443e-08
1.66234e-09
0.200352
0.194073
0.186068
0.176771
0.166538
0.155634
0.14421
0.132258
0.119664
0.106007
0.0907342
0.0801257
0.0713076
0.0635629
0.0565674
0.0500828
0.0438593
0.0378031
0.0318752
0.0260849
0.0205511
0.0155155
0.011269
0.00800237
0.00570641
0.00422186
0.0033683
0.00304354
0.0032935
0.00439008
0.00663709
0.00667144
0.00370919
0.00117576
0.000246244
3.865e-05
4.66079e-06
4.14731e-07
2.44902e-08
7.25051e-10
0.184746
0.179112
0.171911
0.163478
0.154081
0.143894
0.132953
0.121168
0.107995
0.0907342
0.00264468
0.00179131
0.00183821
0.00175289
0.00159427
0.00139743
0.00118354
0.000967984
0.000762747
0.000577543
0.000419868
0.000294187
0.0002009
0.000136296
9.42297e-05
6.85447e-05
5.47905e-05
5.12743e-05
6.14994e-05
0.000105731
0.00430998
0.00348459
0.00165519
0.000479661
9.78618e-05
1.53158e-05
1.84739e-06
1.64204e-07
9.66459e-09
2.84552e-10
0.170988
0.165863
0.159302
0.151565
0.142838
0.133226
0.122754
0.11124
0.0980082
0.0801258
0.00179132
6.85024e-05
4.00364e-05
3.90361e-05
3.52781e-05
2.99639e-05
2.41666e-05
1.85924e-05
1.36771e-05
9.64555e-06
6.5538e-06
4.32951e-06
2.81976e-06
1.84421e-06
1.23949e-06
8.82537e-07
6.95194e-07
6.44732e-07
7.61548e-07
1.19162e-06
0.00221353
0.00151175
0.000623978
0.000170068
3.44378e-05
5.4262e-06
6.5929e-07
5.88601e-08
3.46693e-09
1.01777e-10
0.158812
0.154091
0.148043
0.140856
0.132682
0.123605
0.113593
0.102425
0.0893742
0.0713076
0.00183821
4.00364e-05
1.19549e-06
6.21298e-07
5.59342e-07
4.68179e-07
3.66562e-07
2.71037e-07
1.90554e-07
1.28247e-07
8.33362e-08
5.28783e-08
3.32306e-08
2.104e-08
1.37097e-08
9.45861e-09
7.18956e-09
6.35268e-09
6.9081e-09
9.07716e-09
0.00091378
0.000549083
0.000206761
5.48291e-05
1.11371e-05
1.77207e-06
2.17217e-07
1.94995e-08
1.15016e-09
3.36731e-11
0.147963
0.143559
0.13792
0.131207
0.123531
0.114936
0.105365
0.0945731
0.0817737
0.0635629
0.0017529
3.90361e-05
6.21299e-07
1.537e-08
7.15882e-09
5.88569e-09
4.51864e-09
3.24897e-09
2.21068e-09
1.43754e-09
9.02922e-10
5.54438e-10
3.37403e-10
2.06718e-10
1.30004e-10
8.60964e-11
6.21584e-11
5.11368e-11
4.99155e-11
5.52131e-11
0.000320575
0.000176367
6.32526e-05
1.66336e-05
3.40105e-06
5.461e-07
6.74338e-08
6.07768e-09
3.58499e-10
1.04543e-11
0.138217
0.134081
0.128799
0.122499
0.115262
0.107105
0.0979518
0.0875341
0.0749867
0.0565674
0.00159427
3.52781e-05
5.59342e-07
7.15882e-09
1.51141e-10
6.33091e-11
4.74068e-11
3.3373e-11
2.21405e-11
1.40068e-11
8.54993e-12
5.09708e-12
3.0061e-12
1.77945e-12
1.07591e-12
6.79526e-13
4.61691e-13
3.50319e-13
3.0587e-13
2.90715e-13
0.000101742
5.2837e-05
1.84842e-05
4.8551e-06
9.98884e-07
1.61458e-07
2.00282e-08
1.80762e-09
1.06392e-10
3.08476e-12
0.129427
0.125515
0.120541
0.114604
0.107759
0.100003
0.0912431
0.0811839
0.0688561
0.0500828
0.00139743
2.99639e-05
4.68179e-07
5.8857e-09
6.33091e-11
1.16752e-12
4.4217e-13
3.02695e-13
1.96679e-13
1.2159e-13
7.23493e-14
4.19757e-14
2.40106e-14
1.3758e-14
7.97919e-15
4.76275e-15
2.99418e-15
2.07021e-15
1.61298e-15
1.33992e-15
3.05309e-05
1.52557e-05
5.26109e-06
1.38212e-06
2.85506e-07
4.63152e-08
5.7539e-09
5.18626e-10
3.0389e-11
8.74643e-13
0.121444
0.117723
0.113018
0.107405
0.100917
0.0935336
0.0851442
0.0754207
0.0632534
0.0438593
0.00118354
2.41666e-05
3.66562e-07
4.51864e-09
4.74068e-11
4.4217e-13
7.287e-15
2.29564e-15
1.30817e-15
6.31858e-16
1.80984e-16
1.20656e-16
6.03281e-17
0
0
0
0
0
0
0
8.87674e-06
4.31698e-06
1.47331e-06
3.86708e-07
7.99988e-08
1.29875e-08
1.61168e-09
1.44749e-10
8.42808e-12
2.40608e-13
0.114141
0.110586
0.106122
0.100805
0.0946474
0.0876138
0.0795752
0.0701592
0.0580528
0.0378031
0.000967984
1.85924e-05
2.71037e-07
3.24897e-09
3.33729e-11
3.02695e-13
2.29564e-15
0
0
0
0
0
0
0
0
0
0
0
0
0
2.52527e-06
1.20483e-06
4.07734e-07
1.06768e-07
2.20711e-08
3.5784e-09
4.42754e-10
3.95634e-11
2.28655e-12
6.48432e-14
0.10741
0.104002
0.0997584
0.0947169
0.0888732
0.0821738
0.0744699
0.0653251
0.0531078
0.0318752
0.000762747
1.36771e-05
1.90554e-07
2.21068e-09
2.21405e-11
1.96679e-13
1.30817e-15
0
0
0
0
0
0
0
0
0
0
0
0
0
7.05698e-07
3.32129e-07
1.11608e-07
2.91388e-08
6.01171e-09
9.72354e-10
1.19863e-10
1.06508e-11
6.10987e-13
1.73269e-14
0.101159
0.0978847
0.0938484
0.0890708
0.0835301
0.0771561
0.0697739
0.0608484
0.0483365
0.0260849
0.000577543
9.64555e-06
1.28247e-07
1.43754e-09
1.40068e-11
1.2159e-13
6.31858e-16
0
0
0
0
0
0
0
0
0
0
0
0
0
1.94057e-07
9.04318e-08
3.02103e-08
7.86519e-09
1.61961e-09
2.61385e-10
3.21148e-11
2.83945e-12
1.61949e-13
4.67702e-15
0.0953094
0.0921598
0.0883243
0.0838056
0.0785648
0.072514
0.0654417
0.0566521
0.0437022
0.0205511
0.000419868
6.5538e-06
8.33363e-08
9.02922e-10
8.54993e-12
7.23493e-14
1.80984e-16
0
0
0
0
0
0
0
0
0
0
0
0
0
5.25158e-08
2.42974e-08
8.08086e-09
2.10029e-09
4.32261e-10
6.9721e-11
8.55311e-12
7.53984e-13
4.30044e-14
1.28594e-15
0.0897929
0.0867645
0.0831283
0.0788698
0.0739331
0.0682098
0.0614307
0.052631
0.0391562
0.0155155
0.000294187
4.32951e-06
5.28783e-08
5.54438e-10
5.09708e-12
4.19757e-14
1.20656e-16
0
0
0
0
0
0
0
0
0
0
0
0
0
1.3971e-08
6.43176e-09
2.13402e-09
5.55031e-10
1.14492e-10
1.85146e-11
2.2755e-12
2.00851e-13
1.15925e-14
2.98465e-16
0.0845497
0.081643
0.0782102
0.0742198
0.069599
0.0642114
0.0576938
0.0487501
0.0346641
0.011269
0.0002009
2.81976e-06
3.32307e-08
3.37404e-10
3.0061e-12
2.40106e-14
6.03281e-17
0
0
0
0
0
0
0
0
0
0
0
0
0
3.64583e-09
1.67376e-09
5.55786e-10
1.45218e-10
3.01617e-11
4.91446e-12
6.08396e-13
5.41969e-14
3.23232e-15
5.39778e-17
0.079526
0.0767457
0.0735258
0.0698179
0.0655309
0.0604865
0.0541646
0.0450125
0.0302391
0.00800238
0.000136296
1.84421e-06
2.104e-08
2.06718e-10
1.77945e-12
1.3758e-14
0
0
0
0
0
0
0
0
0
0
0
0
0
0
9.30171e-10
4.27002e-10
1.42571e-10
3.76434e-11
7.92489e-12
1.31048e-12
1.64737e-13
1.50312e-14
9.17622e-16
0
0.0746723
0.072028
0.0690354
0.0656297
0.061696
0.0569893
0.0507556
0.0414248
0.0259825
0.00570642
9.42299e-05
1.23949e-06
1.37097e-08
1.30004e-10
1.07591e-12
7.97919e-15
0
0
0
0
0
0
0
0
0
0
0
0
0
0
2.30918e-10
1.06396e-10
3.59663e-11
9.67664e-12
2.08408e-12
3.53266e-13
4.56811e-14
4.3595e-15
1.9686e-16
0
0.0699419
0.0674473
0.0646998
0.0616157
0.0580458
0.0536415
0.0474667
0.0380206
0.0221051
0.00422187
6.85448e-05
8.82538e-07
9.45863e-09
8.60965e-11
6.79526e-13
4.76275e-15
0
0
0
0
0
0
0
0
0
0
0
0
0
0
5.53951e-11
2.57617e-11
8.90457e-12
2.46957e-12
5.50929e-13
9.7087e-14
1.31642e-14
1.32722e-15
1.9051e-17
0
0.0652851
0.0629559
0.0604677
0.0577115
0.0544857
0.0503009
0.0442888
0.0348633
0.0188976
0.00336831
5.47906e-05
6.95196e-07
7.18957e-09
6.21584e-11
4.61691e-13
2.99418e-15
0
0
0
0
0
0
0
0
0
0
0
0
0
0
1.2707e-11
6.01767e-12
2.15753e-12
6.26561e-13
1.47204e-13
2.74937e-14
3.98166e-15
3.90545e-16
0
0
0.0606291
0.0584733
0.0562379
0.0537771
0.0508112
0.046868
0.0411725
0.0320233
0.0166392
0.00304354
5.12744e-05
6.44733e-07
6.35269e-09
5.11369e-11
3.50319e-13
2.07021e-15
0
0
0
0
0
0
0
0
0
0
0
0
0
0
2.74029e-12
1.34174e-12
5.0956e-13
1.58247e-13
4.00039e-14
8.13159e-15
1.28594e-15
1.20656e-16
0
0
0.0558152
0.053809
0.0517625
0.0494947
0.0467704
0.0431877
0.0379847
0.0295019
0.0154773
0.0032935
6.14995e-05
7.6155e-07
6.90811e-09
4.99156e-11
3.0587e-13
1.61298e-15
0
0
0
0
0
0
0
0
0
0
0
0
0
0
5.38847e-13
2.81027e-13
1.16697e-13
3.98547e-14
1.11575e-14
2.53696e-15
4.19122e-16
0
0
0
0.0504409
0.0485175
0.0465949
0.0445226
0.0420898
0.0389459
0.034413
0.0270655
0.0152596
0.00439009
0.000105731
1.19162e-06
9.07718e-09
5.52131e-11
2.90715e-13
1.33992e-15
0
0
0
0
0
0
0
0
0
0
0
0
0
0
9.05715e-14
5.4e-14
2.57982e-14
1.0078e-14
3.22279e-15
8.16017e-16
1.20656e-16
0
0
0
0.0440245
0.04215
0.0403269
0.0384258
0.0362706
0.0335759
0.0298124
0.0239654
0.0151533
0.0066371
0.00430999
0.00221354
0.000913783
0.000320576
0.000101742
3.0531e-05
8.87676e-06
2.52528e-06
7.05699e-07
1.94057e-07
5.25159e-08
1.3971e-08
3.64583e-09
9.30171e-10
2.30918e-10
5.53951e-11
1.2707e-11
2.74029e-12
5.38847e-13
9.05715e-14
1.91335e-14
9.95096e-15
5.52478e-15
2.54648e-15
9.46199e-16
2.25437e-16
0
0
0
0
0.0360024
0.0341211
0.0323376
0.0305406
0.0285857
0.0262491
0.0231466
0.0186539
0.012515
0.00667146
0.00348461
0.00151175
0.000549085
0.000176368
5.28372e-05
1.52557e-05
4.31699e-06
1.20483e-06
3.3213e-07
9.0432e-08
2.42974e-08
6.43176e-09
1.67376e-09
4.27002e-10
1.06396e-10
2.57617e-11
6.01767e-12
1.34174e-12
2.81027e-13
5.4e-14
9.95096e-15
2.75604e-15
1.29864e-15
6.31858e-16
2.25437e-16
5.39778e-17
0
0
0
0
0.0257842
0.0238967
0.0221484
0.0204429
0.0186634
0.0166442
0.0141435
0.0108937
0.0070591
0.00370921
0.0016552
0.00062398
0.000206761
6.32528e-05
1.84843e-05
5.26111e-06
1.47331e-06
4.07735e-07
1.11608e-07
3.02104e-08
8.08087e-09
2.13403e-09
5.55786e-10
1.42571e-10
3.59663e-11
8.90457e-12
2.15754e-12
5.09569e-13
1.16697e-13
2.57982e-14
5.52478e-15
1.29864e-15
3.96895e-16
1.20656e-16
4.44523e-17
0
0
0
0
0
0.0141041
0.0125293
0.0111287
0.00982761
0.00854752
0.00720044
0.0057009
0.00403447
0.00240567
0.00117576
0.000479663
0.000170069
5.48293e-05
1.66336e-05
4.85512e-06
1.38212e-06
3.86709e-07
1.06768e-07
2.91389e-08
7.8652e-09
2.1003e-09
5.55032e-10
1.45218e-10
3.76434e-11
9.67664e-12
2.46957e-12
6.26561e-13
1.58247e-13
3.98547e-14
1.0078e-14
2.54648e-15
6.31858e-16
1.20656e-16
0
0
0
0
0
0
0
0.00498911
0.00421511
0.00356317
0.00299211
0.00246548
0.00195343
0.00144073
0.000944901
0.000527242
0.000246245
9.78622e-05
3.44379e-05
1.11371e-05
3.40106e-06
9.98887e-07
2.85506e-07
7.99989e-08
2.20711e-08
6.01172e-09
1.61961e-09
4.32261e-10
1.14492e-10
3.01617e-11
7.92489e-12
2.08408e-12
5.50929e-13
1.47204e-13
4.00039e-14
1.11575e-14
3.22279e-15
9.46199e-16
2.25437e-16
4.44523e-17
0
0
0
0
0
0
0
0.0011275
0.000921232
0.000751835
0.000607998
0.000480372
0.000362716
0.000253502
0.000157663
8.44842e-05
3.86501e-05
1.53159e-05
5.42622e-06
1.77207e-06
5.46102e-07
1.61459e-07
4.63153e-08
1.29876e-08
3.5784e-09
9.72355e-10
2.61385e-10
6.9721e-11
1.85146e-11
4.91449e-12
1.31048e-12
3.53266e-13
9.7087e-14
2.74937e-14
8.13159e-15
2.53696e-15
8.16017e-16
2.25437e-16
5.39778e-17
0
0
0
0
0
0
0
0
0.000178685
0.00014324
0.000114186
8.97609e-05
6.85492e-05
4.97327e-05
3.32674e-05
1.98557e-05
1.03289e-05
4.66081e-06
1.8474e-06
6.59292e-07
2.17218e-07
6.74339e-08
2.00283e-08
5.75391e-09
1.61168e-09
4.42755e-10
1.19863e-10
3.21148e-11
8.55311e-12
2.2755e-12
6.08396e-13
1.64737e-13
4.56811e-14
1.31642e-14
3.98166e-15
1.28594e-15
4.19122e-16
1.20656e-16
0
0
0
0
0
0
0
0
0
0
2.01256e-05
1.59111e-05
1.24419e-05
9.53886e-06
7.06241e-06
4.94115e-06
3.17989e-06
1.83277e-06
9.30144e-07
4.14733e-07
1.64205e-07
5.88603e-08
1.94996e-08
6.07769e-09
1.80763e-09
5.18627e-10
1.44749e-10
3.95635e-11
1.06508e-11
2.83945e-12
7.53984e-13
2.00851e-13
5.41969e-14
1.50312e-14
4.3595e-15
1.32722e-15
3.90545e-16
1.20656e-16
0
0
0
0
0
0
0
0
0
0
0
0
1.46374e-06
1.14354e-06
8.78923e-07
6.58594e-07
4.73966e-07
3.20962e-07
1.99721e-07
1.11764e-07
5.55445e-08
2.44903e-08
9.66462e-09
3.46695e-09
1.15016e-09
3.585e-10
1.06392e-10
3.0389e-11
8.42815e-12
2.28657e-12
6.10997e-13
1.61949e-13
4.30044e-14
1.15925e-14
3.23232e-15
9.17622e-16
1.9686e-16