/*--------------------------------*- C++ -*----------------------------------*\
| =========                 |                                                 |
| \\      /  F ield         | OpenFOAM: The Open Source CFD Toolbox           |
|  \\    /   O peration     | Version:  2.1.0                                 |
|   \\  /    A nd           | Web:      www.OpenFOAM.org                      |
|    \\/     M anipulation  |                                                 |
\*---------------------------------------------------------------------------*/
FoamFile
{
    version     2.0;
    format      ascii;
    class       surfaceScalarField;
    location    "16060";
    object      phi_w;
}
// * * * * * * * * * * * * * * * * * * * * * * * * * * * * * * * * * * * * * //

dimensions      [1 -2 -2 0 0 0 0];

internalField   nonuniform List<scalar> 
22000
(
14.229
14.2288
-22.0883
24.0364
12.7311
-16.9391
29.4939
10.6876
-11.3044
32.0777
8.7246
-7.06517
33.1093
7.06236
-4.30131
33.4486
5.71747
-2.60313
33.5871
4.6401
-1.57985
33.7802
3.77017
-0.964275
34.1502
3.05872
-0.591322
34.7447
2.47122
-0.361199
35.5699
1.98523
-0.214632
36.6084
1.58615
-0.117212
37.8304
1.26371
-0.0494343
39.199
1.00921
-0.000785321
40.6781
0.81483
0.0379922
42.2328
0.673936
0.072343
43.8303
0.5812
0.105398
45.4389
0.533023
0.139283
47.0272
0.52795
0.175456
48.5626
0.566971
0.214935
50.0089
0.653693
0.258298
51.3244
0.794272
0.305482
52.4597
0.996895
0.355542
53.3579
1.27113
0.406865
53.958
1.62809
0.456399
54.1988
2.0778
0.495689
54.0264
2.62569
0.504989
53.4024
3.26771
0.444068
52.3019
3.9834
0.244154
50.7367
4.72502
-0.170871
48.8084
5.44501
-0.82572
46.4631
6.07593
-1.76622
43.3971
6.55133
-2.7999
39.2738
6.8634
-3.18736
33.9921
7.0614
-2.2793
27.7897
7.17132
-1.12856
21.0994
7.22518
-0.563443
14.1656
7.2467
-0.316334
7.10843
7.25143
-0.194786
7.25072
-0.142585
12.7313
24.0363
-16.9391
21.993
21.9929
-13.4839
27.5309
18.9834
-9.36306
30.4155
15.8897
-6.05007
31.7644
13.1235
-3.77955
32.3713
10.7889
-2.33111
32.7172
8.85449
-1.43409
33.0688
7.25009
-0.883756
33.5627
5.91007
-0.544926
34.2587
4.78599
-0.332472
35.1708
3.84609
-0.19499
36.2859
3.06989
-0.102138
37.5759
2.44181
-0.0367104
39.0046
1.94654
0.011024
40.5372
1.56973
0.0502008
42.1401
1.29825
0.085642
43.7821
1.12134
0.1203
45.4338
1.03171
0.156129
47.0662
1.02643
0.194485
48.6493
1.10749
0.236259
50.1494
1.28211
0.281816
51.527
1.56259
0.330778
52.734
1.96562
0.382027
53.7148
2.51273
0.434036
54.4077
3.22835
0.4827
54.7467
4.1347
0.517289
54.6685
5.24392
0.513951
54.1181
6.54572
0.426188
53.0435
7.99082
0.179909
51.4566
9.47631
-0.285578
49.4393
10.9017
-0.995135
46.9385
12.1351
-1.97117
43.7091
13.0836
-2.9606
39.4718
13.7435
-3.19168
34.102
14.1622
-2.17894
27.8435
14.3829
-1.08399
21.1209
14.4795
-0.55451
14.1704
14.5084
-0.313756
7.10772
14.507
-0.193275
14.5
-0.141474
10.6878
29.4939
-11.3047
18.9835
27.5308
-9.36308
24.4372
24.4371
-6.83218
27.6493
21.0305
-4.62416
29.4298
17.7916
-3.00276
30.4368
14.9106
-1.90885
31.1128
12.4148
-1.20137
31.7288
10.2666
-0.752369
32.4386
8.41745
-0.467398
33.3188
6.83
-0.28341
34.3946
5.48221
-0.160829
35.6578
4.36107
-0.0757952
37.0807
3.45297
-0.0147384
38.6278
2.73912
0.0316882
40.2657
2.19947
0.0715369
41.9632
1.81391
0.108692
43.6925
1.56558
0.145686
45.4285
1.44307
0.184223
47.1473
1.44171
0.225409
48.8239
1.5643
0.269801
50.4299
1.82153
0.317288
51.9301
2.2318
0.367054
53.2811
2.82234
0.418034
54.4304
3.62942
0.467916
55.314
4.6949
0.51029
55.8559
6.05934
0.530417
55.9703
7.74858
0.498258
55.5632
9.75059
0.360187
54.529
11.9817
0.0424067
52.882
14.3022
-0.479346
50.6728
16.5148
-1.24408
47.887
18.3988
-2.24197
44.369
19.8309
-3.15745
39.8905
20.8149
-3.19886
34.3227
21.4094
-2.0766
27.9401
21.6954
-1.03675
21.1499
21.7936
-0.542029
14.1689
21.7962
-0.309128
7.10072
21.7652
-0.190578
21.7402
-0.139465
8.72468
32.0777
-7.06525
15.8898
30.4154
-6.05006
21.0306
27.6492
-4.62416
24.4104
24.4103
-3.27953
26.5489
21.1412
-2.21944
27.941
18.0684
-1.45972
28.9646
15.2715
-0.943432
29.8796
12.7577
-0.601196
30.8511
10.513
-0.374787
31.971
8.53013
-0.222565
33.2735
6.81633
-0.117081
34.7497
5.38264
-0.0414873
36.3668
4.22429
0.0144317
38.0882
3.32198
0.060192
39.8802
2.6475
0.101149
41.7149
2.17173
0.14049
43.57
1.87036
0.180231
45.4271
1.72697
0.22163
47.2699
1.7346
0.265298
49.0811
1.89636
0.311174
50.8402
2.22563
0.358518
52.5206
2.74796
0.406366
54.0882
3.50303
0.453034
55.4959
4.54414
0.49397
56.6785
5.93577
0.519024
57.5452
7.74601
0.507943
57.9723
10.0275
0.424353
57.7943
12.7824
0.213233
56.8495
15.9187
-0.175014
55.0946
19.2559
-0.748688
52.5567
22.4387
-1.55512
49.3191
25.0804
-2.54969
45.3531
27.0066
-3.3633
40.485
28.2498
-3.19977
34.6087
28.9203
-1.98231
28.0383
29.1744
-0.995271
21.1525
29.1946
-0.529329
14.138
29.1124
-0.303121
7.0757
29.014
-0.186671
28.9524
-0.136577
7.06238
33.1093
-4.30131
13.1236
31.7644
-3.77957
17.7917
29.4298
-3.0028
21.1413
26.5488
-2.21947
23.4761
23.476
-1.56076
25.1441
20.4275
-1.06087
26.4508
17.5073
-0.702895
27.6349
14.7553
-0.453215
28.8683
12.1922
-0.279554
30.2572
9.85091
-0.156823
31.8398
7.7889
-0.0678258
33.5914
6.06416
-0.00197245
35.4645
4.68918
0.0506748
37.4137
3.63792
0.0965102
39.4044
2.86753
0.139242
41.4135
2.3353
0.181117
43.4266
2.00703
0.223429
45.4348
1.86021
0.266706
47.4316
1.8847
0.310724
49.4104
2.08265
0.354598
51.3625
2.47095
0.397275
53.2757
3.08296
0.437003
55.1293
3.96977
0.469634
56.8875
5.20209
0.486677
58.4887
6.86932
0.472854
59.8267
9.07582
0.402284
60.7272
11.9192
0.237253
60.9306
15.4639
-0.0630074
60.1867
19.7048
-0.500587
58.2774
24.3816
-1.11376
55.1984
28.893
-1.93726
51.2453
32.4734
-2.89376
46.5963
34.8749
-3.56907
41.1554
36.2356
-3.17988
34.8629
36.803
-1.88772
28.0585
36.8665
-0.956701
21.0702
36.6879
-0.515884
14.0396
36.4376
-0.295734
7.01405
36.221
-0.181599
36.0989
-0.132557
5.71749
33.4486
-2.60315
10.789
32.3713
-2.33116
14.9107
30.4368
-1.9089
18.0684
27.9409
-1.45975
20.4276
25.1441
-1.06089
22.2239
22.2238
-0.741261
23.6988
19.279
-0.499285
25.0717
16.3586
-0.320696
26.5271
13.5026
-0.189074
28.1952
10.7849
-0.0906665
30.1151
8.3416
-0.0159968
32.2164
6.33158
0.0430866
34.4133
4.78136
0.0943979
36.6433
3.63744
0.141473
38.8721
2.82695
0.186423
41.0852
2.28613
0.230261
43.2798
1.96828
0.273122
45.4593
1.84357
0.314356
47.6296
1.89775
0.35269
49.7987
2.13381
0.386829
51.9745
2.57233
0.414267
54.1625
3.25086
0.430158
56.3616
4.22628
0.426007
58.5548
5.58002
0.38763
60.6952
7.41501
0.296142
62.6701
9.87519
0.126709
64.2718
13.1669
-0.138276
65.1715
17.5236
-0.497688
64.8635
23.0897
-0.975955
62.7888
29.6673
-1.6066
58.7788
36.2696
-2.40581
53.6469
41.0609
-3.27348
47.9569
43.7976
-3.75546
41.7228
44.9711
-3.11098
34.9264
45.1333
-1.77765
27.8798
44.7746
-0.91393
20.82
44.2383
-0.498732
13.823
43.7196
-0.285552
6.8919
43.3267
-0.174573
43.1177
-0.12701
4.64012
33.5871
-1.57989
8.85455
32.7172
-1.43414
12.4148
31.1128
-1.20142
15.2716
28.9646
-0.943462
17.5073
26.4507
-0.702907
19.279
23.6988
-0.499288
20.7785
20.7784
-0.335805
22.2157
17.7179
-0.207348
23.8094
14.5424
-0.106427
25.752
11.3444
-0.0266508
28.105
8.38322
0.0379106
30.6662
6.08226
0.0946848
33.2693
4.42874
0.146898
35.8328
3.28316
0.19596
38.3313
2.51572
0.241985
40.7674
2.03428
0.28396
43.1551
1.77873
0.3201
45.5134
1.71401
0.348419
47.8656
1.82539
0.366974
50.2372
2.11499
0.372217
52.6531
2.60348
0.357179
55.1379
3.3212
0.312129
57.7153
4.30851
0.224804
60.3898
5.64187
0.0767759
63.1554
7.4477
-0.135037
65.9618
9.92703
-0.405626
68.6285
13.3984
-0.744357
70.7376
18.3524
-1.15501
71.4412
25.4013
-1.64898
69.391
34.8774
-2.24657
63.5701
45.446
-2.95477
56.3836
51.7139
-3.65868
49.1305
54.2553
-3.86423
41.885
54.6144
-2.94312
34.5677
53.8999
-1.63434
27.3436
52.8202
-0.858301
20.3012
51.7489
-0.473495
13.4301
50.8611
-0.270622
6.68287
50.2387
-0.164729
49.9201
-0.119415
3.7702
33.7802
-0.964302
7.25013
33.0688
-0.883792
10.2666
31.7288
-0.7524
12.7577
29.8796
-0.601214
14.7554
27.6349
-0.453222
16.3586
25.0717
-0.320698
17.7179
22.2157
-0.207347
19.0402
19.0402
-0.112067
20.6114
15.4897
-0.032374
22.7908
11.5786
0.0351233
25.8041
7.70377
0.0965786
29.0127
5.1501
0.1544
32.1238
3.55839
0.208672
35.0654
2.5685
0.25776
37.8499
1.96586
0.298319
40.5118
1.63508
0.325626
43.0904
1.51573
0.335577
45.6248
1.57433
0.324107
48.1552
1.79072
0.286182
50.7257
2.14828
0.215624
53.3708
2.65524
0.0990903
56.1252
3.32903
-0.0721135
59.0487
4.19217
-0.289177
62.1956
5.28134
-0.559551
65.6347
6.71348
-0.878989
69.4332
8.74161
-1.23292
73.5825
11.828
-1.60967
77.7864
16.795
-2.00926
80.9173
25.0911
-2.44739
79.9596
38.9064
-2.94388
69.838
58.8859
-3.48682
58.925
66.0215
-3.92819
49.4895
66.7354
-3.76029
41.1706
65.1198
-2.61712
33.488
62.9035
-1.44539
26.2723
60.7948
-0.781843
19.4133
59.0413
-0.436207
12.8078
57.7157
-0.249213
6.36422
56.8336
-0.151284
56.3941
-0.109436
3.05874
34.1502
-0.591339
5.9101
33.5627
-0.544946
8.41749
32.4386
-0.467412
10.513
30.8511
-0.374794
12.1922
28.8683
-0.279556
13.5026
26.527
-0.189073
14.5424
23.8093
-0.106426
15.4898
20.6113
-0.0323735
16.7002
16.7002
0.0343128
18.9159
11.7142
0.0984704
23.2504
5.68416
0.160411
27.4209
3.2772
0.219988
31.1339
2.14811
0.272692
34.4627
1.56728
0.311632
37.5191
1.28715
0.327471
40.3925
1.22166
0.308156
43.149
1.32864
0.242362
45.8412
1.56112
0.122953
48.5128
1.8737
-0.05291
51.2327
2.21682
-0.270187
54.0446
2.54881
-0.533351
56.9884
2.8776
-0.838433
60.1379
3.26112
-1.16243
63.6277
3.78665
-1.47807
67.6629
4.56823
-1.7665
72.5195
5.78697
-2.02437
78.5495
7.8067
-2.26778
86.0826
11.4671
-2.53548
94.7326
18.9418
-2.87592
99.9391
36.5682
-3.29989
76.9737
85.0018
-3.69821
59.6389
86.4592
-3.80725
47.8738
81.1557
-3.27248
38.9542
75.8963
-2.13718
31.3793
71.6239
-1.21633
24.5188
68.3239
-0.681132
18.0878
65.8558
-0.384973
11.9256
64.0985
-0.220613
5.92465
62.9688
-0.13409
62.416
-0.0971387
2.47123
34.7447
-0.361208
4.78601
34.2587
-0.33248
6.83003
33.3188
-0.283415
8.53017
31.971
-0.222565
9.85094
30.2572
-0.156822
10.7849
28.1952
-0.0906646
11.3444
25.7519
-0.0266494
11.5786
22.7907
0.0351241
11.7143
18.9159
0.0984707
12.8859
12.8858
0.162716
20.8435
8.51211
0.216857
26.2918
15.6457
0.269093
30.553
21.172
0.305642
34.1826
26.3387
0.312663
37.4536
31.3693
0.265504
40.4995
36.2424
0.129827
43.3814
40.8501
-0.110893
46.1538
45.104
-0.430749
48.8559
48.9846
-0.798346
51.5647
52.578
-1.15167
54.3734
56.027
-1.43033
57.3719
59.4718
-1.59734
60.6634
63.0423
-1.65261
64.4093
66.8942
-1.63835
68.8816
71.2579
-1.61699
74.5392
76.5202
-1.63876
82.2099
83.4319
-1.7384
93.5573
93.7519
-1.9546
112.359
112.573
-2.33824
148.373
157.843
-2.90461
78.431
157.831
-3.366
54.3354
113.148
-3.17153
42.6145
94.9777
-2.49553
34.6818
85.3094
-1.62693
28.0793
79.1625
-0.970253
22.0507
74.9081
-0.561403
16.3305
71.8974
-0.322161
10.7959
69.8192
-0.186123
5.37186
68.5069
-0.113922
67.8708
-0.0829634
1.98524
35.5699
-0.214636
3.84611
35.1708
-0.194993
5.48223
34.3946
-0.160829
6.81636
33.2735
-0.117078
7.78893
31.8398
-0.067823
8.34163
30.115
-0.0159945
8.38324
28.105
0.0379122
7.70379
25.804
0.0965795
5.68418
23.2504
0.160411
8.51217
20.8434
0.216857
27.977
27.977
-1.34439
31.8181
43.2251
-1.97966
35.7198
54.7877
-2.71557
39.2132
64.0876
-3.46591
42.3268
71.934
-4.20058
45.1071
78.832
-4.84027
47.6353
85.1475
-5.25224
50.0344
91.1567
-5.31956
52.4493
97.0547
-4.99409
55.0136
102.961
-4.3174
57.8182
108.941
-3.42345
60.9424
115.066
-2.49494
64.5152
121.446
-1.6986
68.773
128.255
-1.12872
74.1439
135.742
-0.78959
81.451
144.255
-0.632657
92.5299
154.235
-0.607434
112.378
165.975
-0.684186
157.629
177.873
-0.863054
148.361
176.498
-1.29492
33.7479
129.027
-2.43625
36.1656
112.639
-2.27912
32.9462
99.7683
-1.76726
28.5349
90.845
-1.18816
23.8249
84.592
-0.733622
19.04
80.1264
-0.435753
14.2522
76.9392
-0.254245
9.48367
74.7367
-0.148891
4.7357
73.3472
-0.0922961
72.6743
-0.0678023
1.58616
36.6084
-0.117214
3.06991
36.2859
-0.102137
4.36109
35.6578
-0.0757928
5.38267
34.7497
-0.0414839
6.06419
33.5914
-0.00196945
6.3316
32.2164
0.0430891
6.08228
30.6662
0.0946865
5.15012
29.0126
0.154401
3.27721
27.4209
0.219989
15.6457
26.2918
0.269093
43.2252
31.8181
-1.97967
43.3807
43.3806
-1.08485
45.0197
53.7289
-1.0498
47.0596
62.7742
-1.19468
49.2248
70.7378
-1.39362
51.4226
77.8709
-1.59189
53.6446
84.3915
-1.74417
55.9324
90.4781
-1.81322
58.3551
96.2707
-1.78066
60.9946
101.876
-1.65102
63.9429
107.381
-1.45063
67.3224
112.866
-1.21954
71.3241
118.416
-0.997253
76.2604
124.115
-0.813164
82.6565
130.018
-0.682953
91.4312
136.087
-0.613985
104.269
142.006
-0.616226
124.277
146.668
-0.709161
156.253
146.82
-0.930952
100.89
134.313
-1.35826
17.3598
115.117
-1.70219
23.2954
108.064
-1.53954
24.0229
100.161
-1.20015
22.2819
93.3848
-0.82295
19.3593
88.0308
-0.521282
15.8528
83.949
-0.316931
12.0497
80.931
-0.188613
8.09419
78.8048
-0.112597
4.06278
77.4496
-0.0710749
76.7899
-0.0529418
1.26372
37.8304
-0.0494346
2.44182
37.5759
-0.036709
3.45298
37.0807
-0.0147355
4.22431
36.3668
0.014435
4.6892
35.4645
0.0506778
4.78138
34.4132
0.0944003
4.42875
33.2693
0.146899
3.5584
32.1237
0.208673
2.14812
31.1338
0.272693
21.172
30.553
0.305643
54.7877
35.7197
-2.71558
53.729
45.0196
-1.0498
54.0649
54.0649
-0.688393
55.0233
62.4249
-0.616995
56.3578
70.0389
-0.642755
57.9431
76.9797
-0.699819
59.7313
83.3554
-0.756301
61.725
89.2746
-0.792823
63.9607
94.8331
-0.799522
66.4992
100.111
-0.774627
69.4279
105.175
-0.72315
72.8728
110.076
-0.655632
77.0227
114.85
-0.583404
82.1631
119.492
-0.517512
88.7255
123.925
-0.46891
97.351
127.911
-0.448914
108.931
130.9
-0.473122
124.429
131.734
-0.563415
143.746
128.251
-0.747098
81.6936
117.315
-1.02497
10.3065
107.394
-1.07815
15.3929
103.871
-0.964442
17.2466
99.0339
-0.754931
16.9278
94.223
-0.52751
15.2776
90.0231
-0.343583
12.8348
86.6066
-0.214687
9.9235
83.9734
-0.131231
6.73892
82.0698
-0.0803759
3.40317
80.8373
-0.0519805
80.2325
-0.0394592
1.00921
39.199
-0.000785233
1.94655
39.0046
0.0110257
2.73913
38.6278
0.0316909
3.322
38.0882
0.0601951
3.63793
37.4137
0.096513
3.63746
36.6433
0.141475
3.28317
35.8328
0.195961
2.56851
35.0654
0.257761
1.56728
34.4627
0.311633
26.3387
34.1826
0.312664
64.0876
39.2132
-3.46591
62.7742
47.0596
-1.19468
62.4249
55.0232
-0.616995
62.6373
62.6373
-0.425095
63.2986
69.7444
-0.366983
64.3188
76.3194
-0.360317
65.6505
82.3951
-0.371483
67.2835
88.0256
-0.384223
69.2387
93.2682
-0.390262
71.5628
98.1735
-0.386332
74.3295
102.781
-0.372546
77.6462
107.111
-0.351694
81.6653
111.158
-0.327304
86.5955
114.867
-0.304355
92.7117
118.098
-0.289492
100.34
120.574
-0.290539
109.765
121.793
-0.318774
120.946
120.94
-0.387604
132.81
116.892
-0.505599
71.7729
108.639
-0.636941
6.7836
102.582
-0.591412
10.5554
100.606
-0.530371
12.4357
97.567
-0.422835
12.7279
94.234
-0.305841
11.8611
91.097
-0.207361
10.2017
88.4007
-0.134767
8.01982
86.2405
-0.0854264
5.50651
84.6373
-0.0541157
2.7983
83.5817
-0.0361265
83.0588
-0.0279986
0.814834
40.6781
0.0379926
1.56973
40.5372
0.0502024
2.19948
40.2657
0.0715394
2.64751
39.8801
0.101152
2.86755
39.4044
0.139244
2.82696
38.8721
0.186425
2.51573
38.3313
0.241987
1.96587
37.8499
0.29832
1.28716
37.5191
0.327472
31.3693
37.4536
0.265504
71.9341
42.3267
-4.20058
70.7379
49.2247
-1.39362
70.0389
56.3578
-0.642755
69.7444
63.2986
-0.366983
69.8736
69.8735
-0.258266
70.3946
76.015
-0.217084
71.281
81.7122
-0.204112
72.5261
86.9823
-0.201908
74.144
91.8523
-0.20212
76.1699
96.3483
-0.200789
78.66
100.487
-0.196365
81.6933
104.267
-0.189444
85.3737
107.659
-0.18115
89.8269
110.588
-0.173788
95.1878
112.909
-0.171131
101.559
114.381
-0.177527
108.912
114.639
-0.198971
116.898
113.194
-0.240209
124.558
109.529
-0.296759
65.7154
103.395
-0.327041
4.80778
99.323
-0.261957
7.51665
98.1311
-0.241747
9.10279
96.1812
-0.203354
9.59081
93.9022
-0.156909
9.16484
91.6363
-0.113344
8.0415
89.6019
-0.077997
6.41657
87.9173
-0.0519184
4.45096
86.6373
-0.0343675
2.27542
85.7812
-0.0238325
85.3534
-0.018922
0.673939
42.2328
0.0723435
1.29826
42.1401
0.0856435
1.81392
41.9632
0.108694
2.17174
41.7148
0.140492
2.33531
41.4135
0.181119
2.28614
41.0852
0.230263
2.03428
40.7673
0.283962
1.63509
40.5118
0.325627
1.22166
40.3924
0.308157
36.2425
40.4994
0.129827
78.8321
45.1071
-4.84028
77.871
51.4226
-1.59189
76.9797
57.9431
-0.699819
76.3194
64.3188
-0.360317
76.015
70.3945
-0.217084
76.0918
76.0918
-0.154264
76.5511
81.3792
-0.126883
77.3961
86.2524
-0.115458
78.64
90.7189
-0.110739
80.3086
94.7878
-0.108209
82.4403
98.4612
-0.105663
85.0853
101.726
-0.102899
88.302
104.543
-0.100061
92.1478
106.84
-0.0980294
96.6604
108.495
-0.0987648
101.817
109.329
-0.104072
107.466
109.107
-0.116202
113.232
107.562
-0.134823
118.424
104.487
-0.150547
61.6431
99.8886
-0.13336
3.61584
97.0043
-0.0808555
5.56674
96.2606
-0.0823963
6.82387
95.0025
-0.0792467
7.3249
93.4704
-0.0693039
7.13036
91.8866
-0.0554559
6.35699
90.4166
-0.0414046
5.13648
89.1673
-0.0293965
3.59495
88.1994
-0.0205495
1.8476
87.5437
-0.0149268
87.2134
-0.0122277
0.581202
43.8303
0.105398
1.12135
43.7821
0.120302
1.56559
43.6925
0.145688
1.87036
43.57
0.180233
2.00704
43.4266
0.223431
1.96828
43.2798
0.273124
1.77874
43.1551
0.320101
1.51573
43.0903
0.335578
1.32865
43.1489
0.242363
40.8501
43.3814
-0.110892
85.1475
47.6353
-5.25224
84.3915
53.6446
-1.74417
83.3554
59.7312
-0.756302
82.3951
65.6504
-0.371483
81.7122
71.281
-0.204112
81.3793
76.551
-0.126883
81.4243
81.4242
-0.0903101
81.8626
85.8869
-0.0730442
82.709
89.9372
-0.0648774
83.982
93.5756
-0.0608177
85.7048
96.7971
-0.0582549
87.9028
99.5848
-0.0565619
90.5988
101.903
-0.0553683
93.8029
103.691
-0.054783
97.4947
104.86
-0.0558347
101.594
105.289
-0.058816
105.922
104.843
-0.0636538
110.157
103.395
-0.0684893
113.826
100.884
-0.0650365
58.7588
97.3986
-0.0374263
2.87209
95.2986
-0.00401683
4.3087
94.8357
-0.0121037
5.29172
94.0399
-0.0207436
5.74108
93.0459
-0.0246619
5.6604
91.9912
-0.0237689
5.10767
90.9894
-0.019993
4.16861
90.122
-0.0154468
2.9392
89.4406
-0.0115502
1.51736
88.9744
-0.008882
88.7383
-0.00752326
0.533025
45.4388
0.139283
1.03171
45.4338
0.15613
1.44308
45.4285
0.184225
1.72698
45.4271
0.221632
1.86022
45.4348
0.266708
1.84358
45.4592
0.314358
1.71402
45.5134
0.34842
1.57433
45.6248
0.324108
1.56112
45.8412
0.122955
45.104
46.1538
-0.430748
91.1568
50.0344
-5.31957
90.4782
55.9324
-1.81322
89.2746
61.725
-0.792824
88.0257
67.2835
-0.384223
86.9823
72.526
-0.201908
86.2525
77.396
-0.115458
85.887
81.8625
-0.0730443
85.9129
85.9128
-0.0520499
86.3473
89.544
-0.0415695
87.2035
92.7553
-0.0363
88.4925
95.5416
-0.0333525
90.2209
97.8884
-0.0318103
92.387
99.7682
-0.0309865
94.9714
101.138
-0.0305169
97.9245
101.938
-0.0308823
101.148
102.099
-0.0317947
104.473
101.552
-0.0326193
107.647
100.252
-0.0315194
110.341
98.214
-0.0229507
56.6588
95.545
-0.000487478
2.40923
93.9932
0.0179387
3.51293
93.7213
0.0105781
4.29768
93.2536
0.00134927
4.68636
92.6627
-0.00526124
4.65861
92.0271
-0.00831024
4.24028
91.4164
-0.00853351
3.48718
90.8827
-0.00742543
2.47304
90.4607
-0.0060513
1.28132
90.171
-0.00492878
90.024
-0.00428424
0.527951
47.0272
0.175457
1.02643
47.0662
0.194486
1.44171
47.1473
0.225411
1.73461
47.2699
0.2653
1.88471
47.4316
0.310725
1.89775
47.6296
0.352692
1.82539
47.8656
0.366975
1.79072
48.1552
0.286183
1.8737
48.5128
-0.0529085
48.9847
48.8559
-0.798344
97.0548
52.4493
-4.99409
96.2708
58.3551
-1.78066
94.8331
63.9606
-0.799522
93.2682
69.2387
-0.390262
91.8523
74.144
-0.20212
90.719
78.64
-0.110739
89.9373
82.7089
-0.0648775
89.5441
86.3472
-0.0415695
89.5585
89.5585
-0.0295768
89.9897
92.3468
-0.0234137
90.8394
94.7119
-0.0200218
92.1007
96.6456
-0.0183223
93.7564
98.1303
-0.0174459
95.7715
99.1397
-0.0168345
98.0854
99.6406
-0.0167613
100.601
99.5999
-0.0166497
103.174
98.9953
-0.0158488
105.609
97.831
-0.0129857
107.672
96.1572
-0.00538935
55.107
94.0858
0.00895772
2.13729
92.929
0.0183494
3.04517
92.7999
0.0135345
3.7068
92.585
0.00702474
4.05082
92.317
0.00162253
4.04788
92.0317
-0.0015542
3.70661
91.7608
-0.00284867
3.0652
91.5273
-0.00305073
2.18325
91.3454
-0.00274848
1.13431
91.2222
-0.00231959
91.1603
-0.00203164
0.566971
48.5625
0.214935
1.10749
48.6493
0.236261
1.5643
48.8239
0.269803
1.89636
49.0811
0.311176
2.08265
49.4104
0.3546
2.13381
49.7987
0.38683
2.11499
50.2372
0.372218
2.14828
50.7257
0.215626
2.21682
51.2327
-0.270185
52.5781
51.5646
-1.15167
102.961
55.0136
-4.3174
101.876
60.9946
-1.65102
100.111
66.4992
-0.774627
98.1735
71.5628
-0.386333
96.3483
76.1699
-0.200789
94.7879
80.3086
-0.108209
93.5756
83.9819
-0.0608177
92.7553
87.2034
-0.0363
92.3469
89.9897
-0.0234137
92.3548
92.3547
-0.0166766
92.773
94.3063
-0.0129595
93.5855
95.8441
-0.011132
94.7657
96.9604
-0.0101881
96.2724
97.6426
-0.00943412
98.0447
97.8772
-0.00901443
99.9966
97.6569
-0.00837071
102.01
96.9898
-0.00721152
103.935
95.9109
-0.00462308
105.6
94.4917
0.000536843
53.9502
92.8456
0.00869542
2.00819
91.9758
0.0133493
2.83034
91.9672
0.0106646
3.43876
91.9699
0.00679202
3.76552
91.987
0.00337181
3.77696
92.0194
0.00109948
3.4731
92.0649
-0.000125401
2.8833
92.1177
-0.000586611
2.06007
92.1692
-0.000597999
1.07244
92.2103
-0.000435615
92.2331
-0.000307796
0.653694
50.0088
0.258299
1.28211
50.1494
0.281817
1.82154
50.4299
0.317289
2.22563
50.8402
0.35852
2.47095
51.3625
0.397276
2.57233
51.9745
0.414269
2.60348
52.653
0.35718
2.65524
53.3708
0.0990923
2.54881
54.0445
-0.533349
56.027
54.3733
-1.43032
108.942
57.8182
-3.42345
107.381
63.9429
-1.45064
105.175
69.4279
-0.723151
102.781
74.3294
-0.372546
100.487
78.6599
-0.196365
98.4612
82.4403
-0.105663
96.7971
85.7048
-0.0582549
95.5416
88.4925
-0.0333525
94.7119
90.8393
-0.0200218
94.3063
92.773
-0.0129595
94.3108
94.3108
-0.00899237
94.7018
95.4601
-0.0070292
95.4479
96.2208
-0.0059851
96.507
96.5892
-0.00520038
97.8244
96.5645
-0.00479084
99.3295
96.156
-0.00421223
100.931
95.3916
-0.00320171
102.515
94.3271
-0.00126268
103.954
93.051
0.00196807
53.0804
91.6838
0.00646986
1.99954
91.0187
0.00874235
2.83311
91.1264
0.00738578
3.45578
91.3421
0.00536547
3.79793
91.6415
0.00352897
3.82248
91.9927
0.00219397
3.52587
92.3601
0.00144445
2.93487
92.7076
0.00116589
2.10116
93.0019
0.00117436
1.09523
93.2151
0.00129109
93.327
0.00137384
0.794272
51.3244
0.305482
1.56259
51.527
0.330779
2.2318
51.93
0.367055
2.74796
52.5206
0.406367
3.08296
53.2757
0.437005
3.25086
54.1625
0.43016
3.3212
55.1379
0.31213
3.32903
56.1252
-0.0721114
2.87761
56.9883
-0.838431
59.4718
57.3719
-1.59734
115.066
60.9423
-2.49494
112.866
67.3224
-1.21954
110.076
72.8728
-0.655633
107.111
77.6462
-0.351694
104.267
81.6933
-0.189444
101.726
85.0853
-0.102899
99.5848
87.9027
-0.056562
97.8885
90.2209
-0.0318103
96.6456
92.1007
-0.0183223
95.8441
93.5855
-0.011132
95.4602
94.7018
-0.00702921
95.4625
95.4624
-0.00502259
95.8163
95.8706
-0.00391503
96.4823
95.9263
-0.00309545
97.4159
95.6333
-0.00262961
98.5652
95.0087
-0.00210191
99.8661
94.0917
-0.00124711
101.239
92.9534
0.00016965
102.587
91.7011
0.00217917
52.4152
90.4736
0.00472029
2.10722
89.9435
0.00592784
3.04881
90.1795
0.00530994
3.75523
90.6313
0.00444464
4.14915
91.244
0.00367293
4.18983
91.9489
0.00317317
3.87337
92.6736
0.00299622
3.2292
93.3488
0.0030654
2.31438
93.9137
0.00327632
1.20713
94.3191
0.00349387
94.5306
0.0036062
0.996895
52.4597
0.355543
1.96562
52.7339
0.382028
2.82234
53.2811
0.418035
3.50303
54.0881
0.453036
3.96977
55.1292
0.469635
4.22628
56.3616
0.426009
4.30851
57.7153
0.224806
4.19218
59.0487
-0.289175
3.26112
60.1378
-1.16243
63.0423
60.6634
-1.65261
121.446
64.5152
-1.6986
118.416
71.324
-0.997254
114.85
77.0227
-0.583405
111.158
81.6652
-0.327304
107.659
85.3737
-0.18115
104.543
88.3019
-0.100061
101.903
90.5988
-0.0553683
99.7683
92.3869
-0.0309866
98.1304
93.7563
-0.0174459
96.9604
94.7657
-0.0101881
96.2208
95.4478
-0.00598511
95.8706
95.8162
-0.00391503
95.8719
95.8719
-0.00269204
96.1894
95.6108
-0.00181631
96.7913
95.0328
-0.00129516
97.6482
94.1527
-0.000798535
98.7278
93.0122
-0.00010284
99.9871
91.6932
0.00092356
101.36
90.3262
0.00231229
51.885
89.0866
0.00400825
2.34322
88.6229
0.00484962
3.50062
89.0173
0.00467491
4.36787
89.7595
0.00458385
4.85406
90.7531
0.0046446
4.91452
91.8835
0.00492229
4.54862
93.0342
0.00538782
3.79405
94.0976
0.00597986
2.71977
94.9816
0.00658711
1.41867
95.6132
0.00705889
95.942
0.00729641
1.27113
53.3578
0.406866
2.51273
53.7148
0.434037
3.62942
54.4304
0.467917
4.54414
55.4959
0.493971
5.20209
56.8875
0.486678
5.58002
58.5547
0.387632
5.64187
60.3897
0.0767783
5.28134
62.1956
-0.559549
3.78665
63.6277
-1.47807
66.8942
64.4093
-1.63835
128.255
68.773
-1.12872
124.115
76.2604
-0.813164
119.492
82.1631
-0.517512
114.867
86.5954
-0.304355
110.588
89.8268
-0.173788
106.84
92.1478
-0.0980295
103.691
93.8029
-0.0547831
101.138
94.9713
-0.0305169
99.1397
95.7714
-0.0168345
97.6426
96.2724
-0.00943412
96.5892
96.507
-0.00520038
95.9263
96.4823
-0.00309545
95.6108
96.1893
-0.00181631
95.6114
95.6114
-0.000945647
95.9111
94.7337
-0.000422119
96.5077
93.5562
4.84698e-05
97.4088
92.1105
0.000683132
98.6201
90.4804
0.00157368
100.12
88.8235
0.00280119
51.4214
87.3777
0.00438107
2.73766
86.8981
0.00530351
4.24277
87.5065
0.00555359
5.36153
88.6345
0.00615694
5.98444
90.1232
0.00707816
6.06516
91.7946
0.00827814
5.61206
93.4777
0.00967506
4.67806
95.0207
0.0111443
3.35141
96.296
0.0124854
1.74741
97.2038
0.0134931
97.6754
0.0140334
1.62809
53.9579
0.456399
3.22835
54.4077
0.482701
4.69489
55.314
0.510291
5.93577
56.6785
0.519026
6.86932
58.4887
0.472856
7.41501
60.6952
0.296144
7.4477
63.1554
-0.135034
6.71349
65.6347
-0.878987
4.56823
67.6628
-1.7665
71.2579
68.8816
-1.61699
135.742
74.1439
-0.789591
130.018
82.6565
-0.682954
123.925
88.7255
-0.46891
118.098
92.7117
-0.289493
112.909
95.1877
-0.171132
108.495
96.6604
-0.0987649
104.86
97.4947
-0.0558348
101.938
97.9245
-0.0308824
99.6406
98.0854
-0.0167613
97.8772
98.0447
-0.00901445
96.5645
97.8244
-0.00479085
95.6334
97.4159
-0.00262961
95.0328
96.7912
-0.00129516
94.7337
95.9111
-0.000422119
94.7337
94.7337
0.000159876
95.0619
93.2274
0.000695034
95.7787
91.3921
0.00140822
96.9632
89.2933
0.00243488
98.6741
87.1087
0.00392617
50.9418
85.1709
0.00602065
3.3461
84.5532
0.00742414
5.37077
85.4735
0.00819647
6.85016
87.1454
0.00970452
7.65583
89.3056
0.0118593
7.74831
91.6876
0.0145379
7.15503
94.0536
0.0175619
5.95333
96.2019
0.020649
4.25926
97.9667
0.0234318
2.21898
99.2186
0.0255485
99.8678
0.0267095
2.0778
54.1988
0.49569
4.1347
54.7467
0.51729
6.05934
55.8559
0.530418
7.74601
57.5451
0.507945
9.07582
59.8266
0.402286
9.87519
62.6701
0.126712
9.92703
65.9618
-0.405624
8.74161
69.4331
-1.23292
5.78697
72.5195
-2.02437
76.5202
74.5392
-1.63877
144.255
81.451
-0.632658
136.087
91.4312
-0.613986
127.911
97.351
-0.448915
120.574
100.34
-0.290539
114.381
101.559
-0.177528
109.329
101.817
-0.104072
105.289
101.594
-0.0588161
102.099
101.148
-0.0317948
99.5999
100.601
-0.0166498
97.6569
99.9965
-0.00837073
96.156
99.3295
-0.00421224
95.0087
98.5651
-0.00210192
94.1527
97.6482
-0.000798536
93.5563
96.5077
4.84701e-05
93.2274
95.0619
0.000695035
93.2266
93.2266
0.00137661
93.6799
90.9362
0.00235487
94.7787
88.1904
0.00384346
96.7363
85.145
0.00607986
50.324
82.2464
0.00933243
4.26648
81.2714
0.0116368
7.04264
82.6841
0.0132232
9.0104
85.1613
0.0162551
10.0378
88.2576
0.0205747
10.1143
91.5852
0.0259616
9.30336
94.8325
0.0320551
7.71815
97.7489
0.0382966
5.51117
100.13
0.0439751
2.86812
101.813
0.0483379
102.685
0.0507287
2.62568
54.0264
0.50499
5.24392
54.6684
0.513952
7.74858
55.9702
0.49826
10.0275
57.9723
0.424355
11.9192
60.7271
0.237256
13.1669
64.2718
-0.138274
13.3984
68.6285
-0.744355
11.828
73.5825
-1.60967
7.80671
78.5495
-2.26778
83.432
82.2099
-1.73841
154.235
92.5298
-0.607435
142.006
104.269
-0.616227
130.9
108.931
-0.473122
121.793
109.765
-0.318774
114.639
108.912
-0.198972
109.107
107.466
-0.116202
104.843
105.922
-0.063654
101.552
104.473
-0.0326194
98.9953
103.174
-0.0158488
96.9898
102.01
-0.00721155
95.3916
100.931
-0.00320173
94.0917
99.8661
-0.00124712
93.0122
98.7278
-0.000102842
92.1105
97.4088
0.000683133
91.3922
95.7787
0.00140822
90.9362
93.6798
0.00235487
90.9341
90.934
0.00384518
91.7334
87.3847
0.0061656
93.8376
83.0313
0.00967968
49.3491
78.3482
0.0148944
5.67913
76.5507
0.0187639
9.5199
78.8215
0.0218251
12.1067
82.5468
0.0276602
13.3653
86.9629
0.0360279
13.3617
91.5422
0.0465623
12.2197
95.9159
0.0586028
10.099
99.7986
0.0710874
7.19484
102.952
0.0825898
3.73994
105.177
0.0915081
106.329
0.0964023
3.26771
53.4024
0.444069
6.54572
54.1181
0.42619
9.75059
55.5632
0.360189
12.7824
57.7943
0.213236
15.4639
60.9306
-0.0630049
17.5236
65.1715
-0.497686
18.3525
70.7376
-1.15501
16.795
77.7864
-2.00926
11.4671
86.0826
-2.53548
93.7519
93.5573
-1.9546
165.975
112.378
-0.684187
146.668
124.277
-0.709163
131.734
124.429
-0.563416
120.94
120.946
-0.387604
113.194
116.898
-0.24021
107.562
113.232
-0.134824
103.395
110.157
-0.0684895
100.252
107.647
-0.0315195
97.831
105.608
-0.0129858
95.9109
103.935
-0.00462312
94.3271
102.515
-0.0012627
92.9535
101.239
0.000169644
91.6932
99.987
0.000923559
90.4804
98.62
0.00157368
89.2933
96.9632
0.00243488
88.1904
94.7786
0.00384346
87.3848
91.7333
0.0061656
87.3799
87.3799
0.00978652
89.1544
81.2418
0.0152792
47.5517
73.3174
0.0236018
7.94987
69.5124
0.0300786
13.2453
73.4901
0.035932
16.5228
79.2221
0.0470524
17.9446
85.478
0.0630616
17.7354
91.6681
0.0834193
16.1024
97.442
0.107019
13.252
102.517
0.13189
9.42031
106.628
0.155166
4.89189
109.532
0.173441
111.037
0.183547
3.9834
52.3019
0.244155
7.99082
53.0435
0.179911
11.9817
54.529
0.042409
15.9187
56.8495
-0.175011
19.7048
60.1867
-0.500585
23.0897
64.8635
-0.975953
25.4013
71.4412
-1.64897
25.0911
80.9173
-2.44739
18.9418
94.7326
-2.87592
112.573
112.359
-2.33824
177.873
157.629
-0.863056
146.82
156.253
-0.930954
128.251
143.746
-0.7471
116.892
132.81
-0.5056
109.529
124.558
-0.29676
104.487
118.424
-0.150547
100.884
113.826
-0.0650367
98.214
110.34
-0.0229508
96.1572
107.672
-0.00538942
94.4917
105.6
0.000536809
93.051
103.954
0.00196806
91.7011
102.587
0.00217916
90.3262
101.36
0.00231229
88.8236
100.12
0.00280119