/*--------------------------------*- C++ -*----------------------------------*\
| =========                 |                                                 |
| \\      /  F ield         | OpenFOAM: The Open Source CFD Toolbox           |
|  \\    /   O peration     | Version:  2.1.0                                 |
|   \\  /    A nd           | Web:      www.OpenFOAM.org                      |
|    \\/     M anipulation  |                                                 |
\*---------------------------------------------------------------------------*/
FoamFile
{
    version     2.0;
    format      ascii;
    class       volScalarField;
    location    "16060";
    object      so;
}
// * * * * * * * * * * * * * * * * * * * * * * * * * * * * * * * * * * * * * //

dimensions      [0 0 0 0 0 0 0];

internalField   nonuniform List<scalar> 
8000
(
0.323002
0.338361
0.356544
0.375473
0.394113
0.412015
0.429029
0.445086
0.460162
0.47427
0.487453
0.499776
0.511317
0.522146
0.532329
0.541973
0.551181
0.560055
0.568694
0.577202
0.585686
0.594263
0.603065
0.612246
0.622002
0.632599
0.644396
0.657857
0.673484
0.691609
0.712815
0.737379
0.763171
0.784251
0.795452
0.79907
0.799858
0.799984
0.799999
0.8
0.338359
0.35189
0.368147
0.385376
0.402637
0.419478
0.43568
0.451116
0.465719
0.479473
0.492396
0.504535
0.51595
0.526691
0.536829
0.546467
0.555706
0.564647
0.573389
0.582037
0.5907
0.599496
0.608556
0.618037
0.628145
0.639156
0.651436
0.665427
0.681538
0.699932
0.721078
0.74482
0.76866
0.787123
0.796399
0.799276
0.799891
0.799988
0.799999
0.8
0.356544
0.368147
0.38233
0.397685
0.413394
0.429006
0.444245
0.458933
0.472966
0.486293
0.498903
0.510819
0.522074
0.532695
0.542765
0.552382
0.561642
0.570645
0.57949
0.58828
0.597123
0.606133
0.615438
0.625198
0.635622
0.646985
0.659632
0.673937
0.690139
0.70833
0.728929
0.751461
0.773299
0.789455
0.797149
0.79944
0.799917
0.799991
0.799999
0.8
0.375473
0.385376
0.397685
0.411303
0.425536
0.439938
0.454205
0.468134
0.481592
0.494495
0.506804
0.518509
0.529601
0.540115
0.550136
0.559756
0.56907
0.578176
0.587173
0.596161
0.605244
0.614527
0.624137
0.634233
0.645013
0.656723
0.669637
0.683986
0.699787
0.717318
0.736847
0.757743
0.777438
0.791434
0.797765
0.799572
0.799938
0.799993
0.8
0.8
0.394112
0.402637
0.413394
0.425536
0.438469
0.451775
0.465156
0.478401
0.491358
0.503917
0.516002
0.527554
0.538537
0.549009
0.559052
0.568756
0.578217
0.587533
0.596804
0.606124
0.615587
0.625299
0.635384
0.645983
0.657253
0.669348
0.682375
0.696299
0.71122
0.727501
0.745291
0.764017
0.781335
0.793197
0.798291
0.799682
0.799955
0.799995
0.8
0.8
0.412015
0.419478
0.429006
0.439938
0.451775
0.464149
0.476791
0.489494
0.502101
0.514475
0.526486
0.538001
0.549016
0.559586
0.569798
0.579749
0.589542
0.599278
0.609052
0.618956
0.629088
0.639555
0.65046
0.661887
0.673862
0.686312
0.699036
0.712049
0.725495
0.739621
0.754722
0.770589
0.785182
0.794836
0.798754
0.799776
0.799969
0.799997
0.8
0.8
0.429028
0.43568
0.444244
0.454205
0.465156
0.476791
0.488879
0.501243
0.513734
0.526187
0.538367
0.550113
0.561414
0.572338
0.582992
0.593494
0.603958
0.614488
0.625189
0.636169
0.647533
0.659361
0.671659
0.684302
0.697011
0.709574
0.721688
0.733097
0.743828
0.754344
0.765468
0.777646
0.789076
0.796376
0.799162
0.799854
0.799981
0.799998
0.8
0.8
0.445086
0.451116
0.458932
0.468134
0.478401
0.489494
0.501243
0.513528
0.526243
0.539191
0.552096
0.564579
0.576629
0.58838
0.599991
0.611611
0.623376
0.63543
0.647909
0.66092
0.674479
0.688448
0.70267
0.716783
0.730141
0.742028
0.751938
0.759782
0.765947
0.771319
0.777254
0.785013
0.792878
0.797747
0.799497
0.799915
0.799989
0.799999
0.8
0.8
0.460162
0.465719
0.472966
0.481591
0.491358
0.5021
0.513734
0.526243
0.539637
0.55398
0.569022
0.583284
0.597025
0.610584
0.624228
0.63819
0.652679
0.66784
0.683666
0.700121
0.716926
0.733312
0.748229
0.760782
0.770578
0.777701
0.782498
0.785384
0.786799
0.787353
0.788226
0.791652
0.796073
0.798796
0.799737
0.799956
0.799994
0.799999
0.8
0.8
0.47427
0.479473
0.486292
0.494495
0.503916
0.514474
0.526186
0.53919
0.55398
0.571815
0.594988
0.61374
0.631731
0.649997
0.669036
0.688919
0.709102
0.728793
0.746913
0.76235
0.774473
0.783293
0.789278
0.793102
0.795432
0.796791
0.797519
0.797784
0.797598
0.796812
0.795381
0.796115
0.79816
0.799446
0.79988
0.79998
0.799998
0.8
0.8
0.8
0.487453
0.492396
0.498903
0.506804
0.516002
0.526486
0.538367
0.552096
0.569022
0.594988
0.787386
0.792241
0.792813
0.793884
0.795124
0.796328
0.797378
0.798218
0.798838
0.799268
0.799549
0.799725
0.799832
0.799895
0.799932
0.799953
0.799963
0.799966
0.79996
0.799933
0.797412
0.798217
0.799234
0.799777
0.799952
0.799992
0.799999
0.8
0.8
0.8
0.499776
0.504534
0.510819
0.518509
0.527554
0.538001
0.550113
0.564578
0.583284
0.61374
0.792241
0.799772
0.799883
0.7999
0.799922
0.799943
0.799961
0.799974
0.799984
0.79999
0.799994
0.799996
0.799998
0.799999
0.799999
0.799999
0.8
0.8
0.8
0.799999
0.798823
0.799284
0.799715
0.799919
0.799983
0.799997
0.8
0.8
0.8
0.8
0.511317
0.515949
0.522074
0.529601
0.538537
0.549015
0.561414
0.576629
0.597025
0.631731
0.792813
0.799883
0.799997
0.799999
0.799999
0.799999
0.8
0.8
0.8
0.8
0.8
0.8
0.8
0.8
0.8
0.8
0.8
0.8
0.8
0.8
0.799544
0.799744
0.799903
0.799973
0.799994
0.799999
0.8
0.8
0.8
0.8
0.522146
0.52669
0.532695
0.540115
0.549009
0.559586
0.572338
0.58838
0.610584
0.649997
0.793884
0.7999
0.799999
0.8
0.8
0.8
0.8
0.8
0.8
0.8
0.8
0.8
0.8
0.8
0.8
0.8
0.8
0.8
0.8
0.8
0.799842
0.799916
0.799969
0.799991
0.799998
0.8
0.8
0.8
0.8
0.8
0.532329
0.536829
0.542765
0.550135
0.559052
0.569798
0.582992
0.599991
0.624228
0.669036
0.795124
0.799922
0.799999
0.8
0.8
0.8
0.8
0.8
0.8
0.8
0.8
0.8
0.8
0.8
0.8
0.8
0.8
0.8
0.8
0.8
0.799949
0.799974
0.799991
0.799997
0.799999
0.8
0.8
0.8
0.8
0.8
0.541973
0.546466
0.552382
0.559755
0.568755
0.579749
0.593494
0.611611
0.63819
0.688919
0.796328
0.799943
0.799999
0.8
0.8
0.8
0.8
0.8
0.8
0.8
0.8
0.8
0.8
0.8
0.8
0.8
0.8
0.8
0.8
0.8
0.799984
0.799992
0.799997
0.799999
0.8
0.8
0.8
0.8
0.8
0.8
0.551181
0.555706
0.561642
0.56907
0.578217
0.589542
0.603958
0.623376
0.652679
0.709102
0.797378
0.799961
0.8
0.8
0.8
0.8
0.8
0.8
0.8
0.8
0.8
0.8
0.8
0.8
0.8
0.8
0.8
0.8
0.8
0.8
0.799995
0.799998
0.799999
0.8
0.8
0.8
0.8
0.8
0.8
0.8
0.560055
0.564646
0.570645
0.578176
0.587533
0.599278
0.614488
0.63543
0.66784
0.728792
0.798218
0.799974
0.8
0.8
0.8
0.8
0.8
0.8
0.8
0.8
0.8
0.8
0.8
0.8
0.8
0.8
0.8
0.8
0.8
0.8
0.799999
0.799999
0.8
0.8
0.8
0.8
0.8
0.8
0.8
0.8
0.568694
0.573389
0.57949
0.587173
0.596804
0.609052
0.625188
0.647909
0.683666
0.746913
0.798838
0.799984
0.8
0.8
0.8
0.8
0.8
0.8
0.8
0.8
0.8
0.8
0.8
0.8
0.8
0.8
0.8
0.8
0.8
0.8
0.8
0.8
0.8
0.8
0.8
0.8
0.8
0.8
0.8
0.8
0.577202
0.582037
0.58828
0.596161
0.606124
0.618955
0.636168
0.66092
0.700121
0.76235
0.799268
0.79999
0.8
0.8
0.8
0.8
0.8
0.8
0.8
0.8
0.8
0.8
0.8
0.8
0.8
0.8
0.8
0.8
0.8
0.8
0.8
0.8
0.8
0.8
0.8
0.8
0.8
0.8
0.8
0.8
0.585686
0.5907
0.597123
0.605244
0.615587
0.629088
0.647533
0.674479
0.716926
0.774473
0.799549
0.799994
0.8
0.8
0.8
0.8
0.8
0.8
0.8
0.8
0.8
0.8
0.8
0.8
0.8
0.8
0.8
0.8
0.8
0.8
0.8
0.8
0.8
0.8
0.8
0.8
0.8
0.8
0.8
0.8
0.594263
0.599496
0.606133
0.614527
0.625299
0.639555
0.65936
0.688448
0.733312
0.783293
0.799725
0.799996
0.8
0.8
0.8
0.8
0.8
0.8
0.8
0.8
0.8
0.8
0.8
0.8
0.8
0.8
0.8
0.8
0.8
0.8
0.8
0.8
0.8
0.8
0.8
0.8
0.8
0.8
0.8
0.8
0.603065
0.608556
0.615438
0.624137
0.635384
0.65046
0.671659
0.70267
0.748228
0.789278
0.799832
0.799998
0.8
0.8
0.8
0.8
0.8
0.8
0.8
0.8
0.8
0.8
0.8
0.8
0.8
0.8
0.8
0.8
0.8
0.8
0.8
0.8
0.8
0.8
0.8
0.8
0.8
0.8
0.8
0.8
0.612246
0.618037
0.625198
0.634233
0.645983
0.661886
0.684302
0.716783
0.760782
0.793102
0.799895
0.799999
0.8
0.8
0.8
0.8
0.8
0.8
0.8
0.8
0.8
0.8
0.8
0.8
0.8
0.8
0.8
0.8
0.8
0.8
0.8
0.8
0.8
0.8
0.8
0.8
0.8
0.8
0.8
0.8
0.622002
0.628145
0.635622
0.645013
0.657253
0.673862
0.697011
0.730141
0.770578
0.795432
0.799932
0.799999
0.8
0.8
0.8
0.8
0.8
0.8
0.8
0.8
0.8
0.8
0.8
0.8
0.8
0.8
0.8
0.8
0.8
0.8
0.8
0.8
0.8
0.8
0.8
0.8
0.8
0.8
0.8
0.8
0.632599
0.639156
0.646985
0.656723
0.669348
0.686311
0.709574
0.742028
0.777701
0.796791
0.799953
0.799999
0.8
0.8
0.8
0.8
0.8
0.8
0.8
0.8
0.8
0.8
0.8
0.8
0.8
0.8
0.8
0.8
0.8
0.8
0.8
0.8
0.8
0.8
0.8
0.8
0.8
0.8
0.8
0.8
0.644396
0.651436
0.659632
0.669637
0.682375
0.699036
0.721688
0.751938
0.782498
0.797519
0.799963
0.8
0.8
0.8
0.8
0.8
0.8
0.8
0.8
0.8
0.8
0.8
0.8
0.8
0.8
0.8
0.8
0.8
0.8
0.8
0.8
0.8
0.8
0.8
0.8
0.8
0.8
0.8
0.8
0.8
0.657857
0.665427
0.673937
0.683985
0.696299
0.712049
0.733097
0.759782
0.785384
0.797784
0.799966
0.8
0.8
0.8
0.8
0.8
0.8
0.8
0.8
0.8
0.8
0.8
0.8
0.8
0.8
0.8
0.8
0.8
0.8
0.8
0.8
0.8
0.8
0.8
0.8
0.8
0.8
0.8
0.8
0.8
0.673484
0.681538
0.690139
0.699787
0.71122
0.725495
0.743828
0.765947
0.786799
0.797598
0.79996
0.8
0.8
0.8
0.8
0.8
0.8
0.8
0.8
0.8
0.8
0.8
0.8
0.8
0.8
0.8
0.8
0.8
0.8
0.8
0.8
0.8
0.8
0.8
0.8
0.8
0.8
0.8
0.8
0.8
0.691609
0.699932
0.70833
0.717318
0.727501
0.739621
0.754344
0.771319
0.787353
0.796812
0.799933
0.799999
0.8
0.8
0.8
0.8
0.8
0.8
0.8
0.8
0.8
0.8
0.8
0.8
0.8
0.8
0.8
0.8
0.8
0.8
0.8
0.8
0.8
0.8
0.8
0.8
0.8
0.8
0.8
0.8
0.712815
0.721078
0.728929
0.736847
0.74529
0.754722
0.765468
0.777254
0.788226
0.795381
0.797412
0.798823
0.799544
0.799842
0.799949
0.799984
0.799995
0.799999
0.8
0.8
0.8
0.8
0.8
0.8
0.8
0.8
0.8
0.8
0.8
0.8
0.8
0.8
0.8
0.8
0.8
0.8
0.8
0.8
0.8
0.8
0.737379
0.74482
0.751461
0.757743
0.764017
0.770589
0.777646
0.785013
0.791652
0.796115
0.798217
0.799284
0.799744
0.799916
0.799974
0.799992
0.799998
0.799999
0.8
0.8
0.8
0.8
0.8
0.8
0.8
0.8
0.8
0.8
0.8
0.8
0.8
0.8
0.8
0.8
0.8
0.8
0.8
0.8
0.8
0.8
0.763171
0.76866
0.773299
0.777438
0.781335
0.785182
0.789076
0.792878
0.796073
0.79816
0.799234
0.799715
0.799903
0.799969
0.799991
0.799997
0.799999
0.8
0.8
0.8
0.8
0.8
0.8
0.8
0.8
0.8
0.8
0.8
0.8
0.8
0.8
0.8
0.8
0.8
0.8
0.8
0.8
0.8
0.8
0.8
0.784251
0.787123
0.789455
0.791434
0.793197
0.794836
0.796376
0.797747
0.798796
0.799446
0.799777
0.799919
0.799973
0.799991
0.799997
0.799999
0.8
0.8
0.8
0.8
0.8
0.8
0.8
0.8
0.8
0.8
0.8
0.8
0.8
0.8
0.8
0.8
0.8
0.8
0.8
0.8
0.8
0.8
0.8
0.8
0.795452
0.796399
0.797149
0.797765
0.798291
0.798754
0.799162
0.799497
0.799737
0.79988
0.799952
0.799983
0.799994
0.799998
0.799999
0.8
0.8
0.8
0.8
0.8
0.8
0.8
0.8
0.8
0.8
0.8
0.8
0.8
0.8
0.8
0.8
0.8
0.8
0.8
0.8
0.8
0.8
0.8
0.8
0.8
0.799069
0.799276
0.79944
0.799572
0.799682
0.799776
0.799854
0.799915
0.799956
0.79998
0.799992
0.799997
0.799999
0.8
0.8
0.8
0.8
0.8
0.8
0.8
0.8
0.8
0.8
0.8
0.8
0.8
0.8
0.8
0.8
0.8
0.8
0.8
0.8
0.8
0.8
0.8
0.8
0.8
0.8
0.8
0.799858
0.799891
0.799917
0.799938
0.799955
0.799969
0.799981
0.799989
0.799994
0.799998
0.799999
0.8
0.8
0.8
0.8
0.8
0.8
0.8
0.8
0.8
0.8
0.8
0.8
0.8
0.8
0.8
0.8
0.8
0.8
0.8
0.8
0.8
0.8
0.8
0.8
0.8
0.8
0.8
0.8
0.8
0.799984
0.799988
0.799991
0.799993
0.799995
0.799997
0.799998
0.799999
0.799999
0.8
0.8
0.8
0.8
0.8
0.8
0.8
0.8
0.8
0.8
0.8
0.8
0.8
0.8
0.8
0.8
0.8
0.8
0.8
0.8
0.8
0.8
0.8
0.8
0.8
0.8
0.8
0.8
0.8
0.8
0.8
0.799999
0.799999
0.799999
0.8
0.8
0.8
0.8
0.8
0.8
0.8
0.8
0.8
0.8
0.8
0.8
0.8
0.8
0.8
0.8
0.8
0.8
0.8
0.8
0.8
0.8
0.8
0.8
0.8
0.8
0.8
0.8
0.8
0.8
0.8
0.8
0.8
0.8
0.8
0.8
0.8
0.8
0.8
0.8
0.8
0.8
0.8
0.8
0.8
0.8
0.8
0.8
0.8
0.8
0.8
0.8
0.8
0.8
0.8
0.8
0.8
0.8
0.8
0.8
0.8
0.8
0.8
0.8
0.8
0.8
0.8
0.8
0.8
0.8
0.8
0.8
0.8
0.8
0.8
0.8
0.8
0.25697
0.276804
0.300719
0.325339
0.348962
0.370909
0.391023
0.409385
0.42617
0.441532
0.4556
0.468497
0.480355
0.491317
0.501522
0.511055
0.520014
0.52849
0.536567
0.544322
0.551826
0.559145
0.566346
0.573495
0.580662
0.587925
0.595379
0.603179
0.611661
0.621704
0.634629
0.652574
0.679406
0.719109
0.763806
0.790601
0.79845
0.799824
0.799987
0.8
0.276798
0.294545
0.315781
0.337877
0.359415
0.379745
0.398644
0.416116
0.43225
0.447125
0.460821
0.473435
0.485075
0.495883
0.505966
0.515407
0.524296
0.532722
0.540763
0.548491
0.555974
0.563273
0.57045
0.577567
0.584686
0.591878
0.599235
0.606922
0.615334
0.625463
0.638627
0.657132
0.685019
0.725642
0.768637
0.792256
0.798756
0.799861
0.79999
0.8
0.300721
0.31578
0.333976
0.353257
0.372433
0.39089
0.408361
0.424774
0.440115
0.454385
0.467617
0.479868
0.491234
0.501839
0.511748
0.521047
0.529819
0.538144
0.546096
0.55374
0.561137
0.568342
0.575411
0.582396
0.589351
0.59634
0.603456
0.610898
0.619173
0.629317
0.642623
0.661597
0.690449
0.731789
0.772892
0.793635
0.799007
0.799891
0.799992
0.8
0.325339
0.337875
0.353256
0.369898
0.386814
0.403445
0.419508
0.434852
0.449374
0.463015
0.475759
0.487633
0.498722
0.509097
0.518811
0.527944
0.536573
0.54477
0.5526
0.560122
0.567389
0.574448
0.581344
0.588119
0.594816
0.601495
0.608266
0.615393
0.623541
0.633584
0.646912
0.666248
0.695983
0.737821
0.776772
0.794822
0.799218
0.799917
0.799994
0.8
0.348961
0.359414
0.372433
0.386815
0.401759
0.416782
0.431583
0.445945
0.459712
0.472779
0.485086
0.496638
0.507485
0.517641
0.52717
0.536142
0.544628
0.552691
0.56039
0.567776
0.574893
0.581778
0.588463
0.594978
0.601359
0.607674
0.614086
0.62099
0.628961
0.638757
0.651936
0.671498
0.702037
0.744101
0.780488
0.795887
0.799403
0.799938
0.799996
0.8
0.370909
0.379745
0.390891
0.403445
0.416783
0.430474
0.444205
0.45774
0.470895
0.483525
0.495533
0.506894
0.517558
0.527553
0.53694
0.545785
0.554155
0.562107
0.569694
0.57696
0.58394
0.59066
0.597145
0.603424
0.60955
0.615645
0.621974
0.628763
0.6364
0.645726
0.658481
0.67806
0.709295
0.751133
0.784238
0.796879
0.799566
0.799957
0.799997
0.8
0.391023
0.398644
0.408361
0.419509
0.431583
0.444205
0.457086
0.470002
0.482763
0.495204
0.507191
0.518521
0.529137
0.539076
0.548405
0.557197
0.565516
0.573423
0.580967
0.588188
0.595123
0.601809
0.608297
0.614677
0.621097
0.627557
0.634074
0.640756
0.647926
0.656415
0.66818
0.68732
0.71895
0.759555
0.78814
0.797808
0.79971
0.799972
0.799998
0.8
0.409385
0.416116
0.424775
0.434853
0.445945
0.45774
0.470002
0.48255
0.495242
0.507948
0.520329
0.531939
0.54273
0.552788
0.562216
0.571107
0.579539
0.587585
0.595314
0.602803
0.610153
0.617532
0.625003
0.632564
0.640203
0.647843
0.655316
0.662399
0.669012
0.67573
0.68481
0.70207
0.732854
0.769798
0.792064
0.798631
0.799827
0.799984
0.799999
0.8
0.42617
0.43225
0.440115
0.449374
0.459712
0.470895
0.482763
0.495242
0.508364
0.522054
0.535854
0.548333
0.559711
0.570264
0.580189
0.589634
0.598737
0.607662
0.616639
0.625822
0.635309
0.645249
0.655801
0.667045
0.67883
0.690586
0.701223
0.709313
0.713701
0.714542
0.714954
0.725703
0.751898
0.780919
0.795494
0.799264
0.79991
0.799992
0.8
0.8
0.441532
0.447125
0.454385
0.463015
0.472779
0.483525
0.495204
0.507947
0.522054
0.538285
0.557878
0.572627
0.585798
0.598221
0.610305
0.622397
0.634977
0.648345
0.662778
0.678533
0.695625
0.713554
0.731158
0.746891
0.759523
0.768593
0.774199
0.776416
0.774705
0.767524
0.754218
0.754027
0.771923
0.790218
0.79787
0.799663
0.799959
0.799996
0.8
0.8
0.4556
0.460821
0.467617
0.475759
0.485086
0.495533
0.507191
0.520329
0.535854
0.557878
0.779208
0.785455
0.785102
0.785746
0.786955
0.788476
0.790156
0.791878
0.793546
0.795075
0.796396
0.797461
0.798259
0.798816
0.79918
0.799403
0.799522
0.799553
0.799464
0.79908
0.768032
0.773417
0.786489
0.795893
0.799148
0.799866
0.799984
0.799999
0.8
0.8
0.468497
0.473435
0.479868
0.487633
0.496638
0.506894
0.518521
0.531938
0.548333
0.572627
0.785455
0.799403
0.799651
0.799659
0.799692
0.799738
0.799789
0.799838
0.799881
0.799916
0.799943
0.799962
0.799975
0.799984
0.799989
0.799992
0.799994
0.799994
0.799993
0.79999
0.782315
0.78759
0.794689
0.798524
0.799699
0.799953
0.799994
0.799999
0.8
0.8
0.480354
0.485075
0.491234
0.498722
0.507485
0.517558
0.529137
0.54273
0.559711
0.585798
0.785102
0.799651
0.79999
0.799995
0.799995
0.799996
0.799997
0.799998
0.799998
0.799999
0.799999
0.8
0.8
0.8
0.8
0.8
0.8
0.8
0.8
0.8
0.792316
0.795312
0.798209
0.799522
0.799903
0.799985
0.799998
0.8
0.8
0.8
0.491316
0.495883
0.501839
0.509097
0.517641
0.527553
0.539076
0.552788
0.570264
0.598221
0.785746
0.799659
0.799995
0.8
0.8
0.8
0.8
0.8
0.8
0.8
0.8
0.8
0.8
0.8
0.8
0.8
0.8
0.8
0.8
0.8
0.797236
0.79847
0.799449
0.799855
0.79997
0.799995
0.799999
0.8
0.8
0.8
0.501522
0.505966
0.511748
0.518811
0.52717
0.536939
0.548405
0.562216
0.580189
0.610305
0.786955
0.799692
0.799995
0.8
0.8
0.8
0.8
0.8
0.8
0.8
0.8
0.8
0.8
0.8
0.8
0.8
0.8
0.8
0.8
0.8
0.799115
0.799539
0.799839
0.799958
0.799991
0.799999
0.8
0.8
0.8
0.8
0.511055
0.515406
0.521046
0.527944
0.536142
0.545785
0.557196
0.571107
0.589634
0.622397
0.788476
0.799738
0.799996
0.8
0.8
0.8
0.8
0.8
0.8
0.8
0.8
0.8
0.8
0.8
0.8
0.8
0.8
0.8
0.8
0.8
0.799733
0.799867
0.799954
0.799988
0.799998
0.8
0.8
0.8
0.8
0.8
0.520013
0.524296
0.529819
0.536573
0.544627
0.554155
0.565516
0.579539
0.598737
0.634977
0.790156
0.799789
0.799997
0.8
0.8
0.8
0.8
0.8
0.8
0.8
0.8
0.8
0.8
0.8
0.8
0.8
0.8
0.8
0.8
0.8
0.799922
0.799962
0.799987
0.799997
0.799999
0.8
0.8
0.8
0.8
0.8
0.52849
0.532722
0.538144
0.54477
0.552691
0.562107
0.573423
0.587585
0.607662
0.648345
0.791878
0.799838
0.799998
0.8
0.8
0.8
0.8
0.8
0.8
0.8
0.8
0.8
0.8
0.8
0.8
0.8
0.8
0.8
0.8
0.8
0.799978
0.799989
0.799996
0.799999
0.8
0.8
0.8
0.8
0.8
0.8
0.536567
0.540763
0.546096
0.5526
0.56039
0.569694
0.580967
0.595314
0.616639
0.662778
0.793546
0.799881
0.799998
0.8
0.8
0.8
0.8
0.8
0.8
0.8
0.8
0.8
0.8
0.8
0.8
0.8
0.8
0.8
0.8
0.8
0.799994
0.799997
0.799999
0.8
0.8
0.8
0.8
0.8
0.8
0.8
0.544322
0.548491
0.55374
0.560122
0.567776
0.57696
0.588188
0.602803
0.625822
0.678533
0.795075
0.799916
0.799999
0.8
0.8
0.8
0.8
0.8
0.8
0.8
0.8
0.8
0.8
0.8
0.8
0.8
0.8
0.8
0.8
0.8
0.799998
0.799999
0.8
0.8
0.8
0.8
0.8
0.8
0.8
0.8
0.551826
0.555974
0.561137
0.567388
0.574893
0.58394
0.595123
0.610153
0.635309
0.695625
0.796396
0.799943
0.799999
0.8
0.8
0.8
0.8
0.8
0.8
0.8
0.8
0.8
0.8
0.8
0.8
0.8
0.8
0.8
0.8
0.8
0.8
0.8
0.8
0.8
0.8
0.8
0.8
0.8
0.8
0.8
0.559145
0.563273
0.568342
0.574448
0.581778
0.59066
0.601809
0.617532
0.645249
0.713554
0.797461
0.799962
0.8
0.8
0.8
0.8
0.8
0.8
0.8
0.8
0.8
0.8
0.8
0.8
0.8
0.8
0.8
0.8
0.8
0.8
0.8
0.8
0.8
0.8
0.8
0.8
0.8
0.8
0.8
0.8
0.566346
0.57045
0.575411
0.581344
0.588463
0.597145
0.608297
0.625003
0.655801
0.731157
0.798259
0.799975
0.8
0.8
0.8
0.8
0.8
0.8
0.8
0.8
0.8
0.8
0.8
0.8
0.8
0.8
0.8
0.8
0.8
0.8
0.8
0.8
0.8
0.8
0.8
0.8
0.8
0.8
0.8
0.8
0.573494
0.577567
0.582396
0.588119
0.594978
0.603424
0.614677
0.632564
0.667045
0.746891
0.798816
0.799984
0.8
0.8
0.8
0.8
0.8
0.8
0.8
0.8
0.8
0.8
0.8
0.8
0.8
0.8
0.8
0.8
0.8
0.8
0.8
0.8
0.8
0.8
0.8
0.8
0.8
0.8
0.8
0.8
0.580662
0.584686
0.589351
0.594816
0.601359
0.60955
0.621097
0.640203
0.67883
0.759523
0.79918
0.799989
0.8
0.8
0.8
0.8
0.8
0.8
0.8
0.8
0.8
0.8
0.8
0.8
0.8
0.8
0.8
0.8
0.8
0.8
0.8
0.8
0.8
0.8
0.8
0.8
0.8
0.8
0.8
0.8
0.587925
0.591878
0.59634
0.601495
0.607674
0.615645
0.627557
0.647843
0.690586
0.768593
0.799403
0.799992
0.8
0.8
0.8
0.8
0.8
0.8
0.8
0.8
0.8
0.8
0.8
0.8
0.8
0.8
0.8
0.8
0.8
0.8
0.8
0.8
0.8
0.8
0.8
0.8
0.8
0.8
0.8
0.8
0.595379
0.599235
0.603456
0.608265
0.614085
0.621974
0.634074
0.655316
0.701223
0.774199
0.799522
0.799994
0.8
0.8
0.8
0.8
0.8
0.8
0.8
0.8
0.8
0.8
0.8
0.8
0.8
0.8
0.8
0.8
0.8
0.8
0.8
0.8
0.8
0.8
0.8
0.8
0.8
0.8
0.8
0.8
0.603179
0.606922
0.610897
0.615393
0.62099
0.628763
0.640756
0.662399
0.709313
0.776416
0.799553
0.799994
0.8
0.8
0.8
0.8
0.8
0.8
0.8
0.8
0.8
0.8
0.8
0.8
0.8
0.8
0.8
0.8
0.8
0.8
0.8
0.8
0.8
0.8
0.8
0.8
0.8
0.8
0.8
0.8
0.611661
0.615334
0.619173
0.623541
0.628961
0.6364
0.647926
0.669012
0.713701
0.774705
0.799464
0.799993
0.8
0.8
0.8
0.8
0.8
0.8
0.8
0.8
0.8
0.8
0.8
0.8
0.8
0.8
0.8
0.8
0.8
0.8
0.8
0.8
0.8
0.8
0.8
0.8
0.8
0.8
0.8
0.8
0.621703
0.625463
0.629317
0.633584
0.638757
0.645726
0.656415
0.67573
0.714542
0.767524
0.79908
0.79999
0.8
0.8
0.8
0.8
0.8
0.8
0.8
0.8
0.8
0.8
0.8
0.8
0.8
0.8
0.8
0.8
0.8
0.8
0.8
0.8
0.8
0.8
0.8
0.8
0.8
0.8
0.8
0.8
0.634629
0.638627
0.642623
0.646912
0.651936
0.658481
0.66818
0.68481
0.714954
0.754218
0.768032
0.782315
0.792316
0.797236
0.799115
0.799733
0.799922
0.799978
0.799994
0.799998
0.8
0.8
0.8
0.8
0.8
0.8
0.8
0.8
0.8
0.8
0.8
0.8
0.8
0.8
0.8
0.8
0.8
0.8
0.8
0.8
0.652573
0.657132
0.661597
0.666248
0.671498
0.67806
0.68732
0.70207
0.725703
0.754027
0.773417
0.78759
0.795312
0.79847
0.799539
0.799867
0.799962
0.799989
0.799997
0.799999
0.8
0.8
0.8
0.8
0.8
0.8
0.8
0.8
0.8
0.8
0.8
0.8
0.8
0.8
0.8
0.8
0.8
0.8
0.8
0.8
0.679405
0.685019
0.690449
0.695983
0.702037
0.709294
0.71895
0.732854
0.751898
0.771923
0.786489
0.794689
0.798209
0.799449
0.799839
0.799954
0.799987
0.799996
0.799999
0.8
0.8
0.8
0.8
0.8
0.8
0.8
0.8
0.8
0.8
0.8
0.8
0.8
0.8
0.8
0.8
0.8
0.8
0.8
0.8
0.8
0.719109
0.725642
0.731788
0.737821
0.744101
0.751132
0.759555
0.769798
0.780919
0.790218
0.795893
0.798524
0.799522
0.799855
0.799958
0.799988
0.799997
0.799999
0.8
0.8
0.8
0.8
0.8
0.8
0.8
0.8
0.8
0.8
0.8
0.8
0.8
0.8
0.8
0.8
0.8
0.8
0.8
0.8
0.8
0.8
0.763805
0.768636
0.772891
0.776772
0.780488
0.784238
0.78814
0.792064
0.795494
0.79787
0.799148
0.799699
0.799903
0.79997
0.799991
0.799998
0.799999
0.8
0.8
0.8
0.8
0.8
0.8
0.8
0.8
0.8
0.8
0.8
0.8
0.8
0.8
0.8
0.8
0.8
0.8
0.8
0.8
0.8
0.8
0.8
0.790601
0.792255
0.793635
0.794822
0.795887
0.796879
0.797808
0.798631
0.799264
0.799663
0.799866
0.799953
0.799985
0.799995
0.799999
0.8
0.8
0.8
0.8
0.8
0.8
0.8
0.8
0.8
0.8
0.8
0.8
0.8
0.8
0.8
0.8
0.8
0.8
0.8
0.8
0.8
0.8
0.8
0.8
0.8
0.79845
0.798756
0.799007
0.799218
0.799403
0.799566
0.79971
0.799827
0.79991
0.799959
0.799984
0.799994
0.799998
0.799999
0.8
0.8
0.8
0.8
0.8
0.8
0.8
0.8
0.8
0.8
0.8
0.8
0.8
0.8
0.8
0.8
0.8
0.8
0.8
0.8
0.8
0.8
0.8
0.8
0.8
0.8
0.799824
0.799861
0.799891
0.799917
0.799938
0.799957
0.799972
0.799984
0.799992
0.799996
0.799999
0.799999
0.8
0.8
0.8
0.8
0.8
0.8
0.8
0.8
0.8
0.8
0.8
0.8
0.8
0.8
0.8
0.8
0.8
0.8
0.8
0.8
0.8
0.8
0.8
0.8
0.8
0.8
0.8
0.8
0.799987
0.79999
0.799992
0.799994
0.799996
0.799997
0.799998
0.799999
0.8
0.8
0.8
0.8
0.8
0.8
0.8
0.8
0.8
0.8
0.8
0.8
0.8
0.8
0.8
0.8
0.8
0.8
0.8
0.8
0.8
0.8
0.8
0.8
0.8
0.8
0.8
0.8
0.8
0.8
0.8
0.8
0.8
0.8
0.8
0.8
0.8
0.8
0.8
0.8
0.8
0.8
0.8
0.8
0.8
0.8
0.8
0.8
0.8
0.8
0.8
0.8
0.8
0.8
0.8
0.8
0.8
0.8
0.8
0.8
0.8
0.8
0.8
0.8
0.8
0.8
0.8
0.8
0.8
0.8
0.8
0.8
0.215229
0.233607
0.260332
0.289388
0.317331
0.342918
0.365914
0.386471
0.404874
0.421438
0.436426
0.450038
0.462447
0.473809
0.484275
0.493986
0.503041
0.511539
0.519571
0.527216
0.534549
0.541639
0.548555
0.555369
0.562163
0.569033
0.576112
0.583591
0.591774
0.601139
0.612436
0.627073
0.647766
0.679349
0.725798
0.77248
0.794456
0.799316
0.799948
0.799998
0.233593
0.253267
0.278122
0.304274
0.329563
0.353052
0.374474
0.393873
0.41144
0.427401
0.441938
0.455203
0.46734
0.478486
0.488783
0.49835
0.507285
0.515679
0.523619
0.53118
0.538433
0.545443
0.552276
0.559002
0.565698
0.572462
0.579426
0.586788
0.594868
0.604151
0.615427
0.630193
0.651332
0.683872
0.731037
0.775756
0.795308
0.799434
0.799957
0.799998
0.260336
0.278123
0.299692
0.322378
0.344644
0.365716
0.385287
0.40331
0.419875
0.435097
0.44907
0.461894
0.473677
0.484535
0.494598
0.50396
0.512713
0.520944
0.528731
0.536146
0.543254
0.550115
0.556792
0.56335
0.569862
0.576426
0.583177
0.590321
0.598188
0.607265
0.618389
0.63315
0.654621
0.688038
0.735825
0.778621
0.796033
0.799533
0.799966
0.799999
0.289392
0.304273
0.322377
0.341717
0.361083
0.379799
0.397538
0.414186
0.429736
0.444189
0.457568
0.469919
0.481315
0.491861
0.501653
0.510773
0.519309
0.52734
0.534937
0.542166
0.549087
0.555756
0.562228
0.568564
0.574833
0.581129
0.587589
0.594423
0.601957
0.610681
0.621493
0.636097
0.657783
0.692037
0.740384
0.781226
0.796672
0.799621
0.799973
0.799999
0.317332
0.32956
0.344642
0.361082
0.377909
0.394534
0.410633
0.426048
0.440668
0.454413
0.46724
0.479147
0.49018
0.500422
0.509938
0.518811
0.527122
0.534942
0.542339
0.549373
0.556098
0.562564
0.56882
0.574919
0.580924
0.58692
0.593038
0.599476
0.606526
0.61471
0.624999
0.639252
0.661034
0.696146
0.74502
0.783736
0.797262
0.7997
0.799979
0.799999
0.342917
0.353049
0.365714
0.379799
0.394533
0.409425
0.424171
0.438557
0.452408
0.465586
0.477984
0.489544
0.500294
0.510271
0.519546
0.5282
0.536311
0.543947
0.551173
0.558044
0.564611
0.570916
0.577004
0.582917
0.588706
0.594436
0.600195
0.606125
0.612509
0.619897
0.629356
0.642979
0.66473
0.700818
0.750169
0.786325
0.797834
0.799773
0.799985
0.8
0.365913
0.374472
0.385286
0.397537
0.410633
0.424171
0.437856
0.451454
0.46477
0.477621
0.489817
0.501226
0.511809
0.521615
0.53073
0.539242
0.547231
0.55477
0.561922
0.568741
0.575276
0.581567
0.587653
0.593562
0.599303
0.604874
0.610294
0.615641
0.621141
0.62734
0.635439
0.647976
0.66954
0.706866
0.756455
0.789136
0.798401
0.799842
0.79999
0.8
0.38647
0.393871
0.403309
0.414186
0.426048
0.438557
0.451454
0.464541
0.477645
0.490564
0.503008
0.514557
0.525181
0.534989
0.544108
0.55265
0.560709
0.568367
0.575694
0.58275
0.589589
0.596243
0.602719
0.609008
0.615076
0.62085
0.626226
0.631092
0.635462
0.639754
0.64535
0.655829
0.676889
0.715812
0.764634
0.792192
0.798942
0.799901
0.799994
0.8
0.404873
0.411438
0.419874
0.429735
0.440668
0.452408
0.46477
0.477645
0.490978
0.504715
0.518402
0.530637
0.541682
0.551845
0.561347
0.57035
0.578979
0.587342
0.59553
0.603596
0.611575
0.619506
0.627417
0.635308
0.643107
0.650601
0.657343
0.662604
0.665554
0.665927
0.665349
0.67063
0.689898
0.730155
0.774984
0.795206
0.799399
0.799947
0.799997
0.8
0.421437
0.4274
0.435096
0.444189
0.454413
0.465586
0.477621
0.490564
0.504715
0.520783
0.539849
0.553961
0.566381
0.577949
0.589075
0.600028
0.611025
0.622259
0.633875
0.646035
0.658882
0.672488
0.686755
0.701267
0.715156
0.727157
0.73586
0.73984
0.737353
0.726332
0.70746
0.697567
0.711925
0.751018
0.785731
0.797592
0.799714
0.799975
0.799999
0.8
0.436425
0.441937
0.44907
0.457567
0.46724
0.477983
0.489817
0.503008
0.518402
0.539849
0.775672
0.782232
0.781289
0.781535
0.782478
0.783831
0.785433
0.787174
0.788969
0.790744
0.792432
0.793972
0.795311
0.796409
0.797248
0.797831
0.798169
0.79824
0.797899
0.796495
0.719508
0.718053
0.738337
0.772997
0.79361
0.799004
0.799884
0.79999
0.799999
0.8
0.450037
0.455203
0.461894
0.469918
0.479147
0.489543
0.501226
0.514557
0.530637
0.553961
0.782232
0.799155
0.799481
0.79947
0.799496
0.799545
0.799607
0.799673
0.799736
0.799795
0.799844
0.799885
0.799917
0.79994
0.799956
0.799967
0.799973
0.799974
0.799969
0.799951
0.738164
0.743725
0.766209
0.788662
0.797655
0.799645
0.799959
0.799996
0.8
0.8
0.462446
0.46734
0.473677
0.481315
0.49018
0.500294
0.511809
0.525181
0.541682
0.566381
0.781289
0.799481
0.799982
0.79999
0.799991
0.799992
0.799993
0.799994
0.799996
0.799997
0.799998
0.799998
0.799999
0.799999
0.799999
0.8
0.8
0.8
0.8
0.8
0.761909
0.770474
0.786229
0.796152
0.799246
0.799886
0.799987
0.799999
0.8
0.8
0.473809
0.478486
0.484535
0.491861
0.500421
0.51027
0.521615
0.534989
0.551845
0.577949
0.781535
0.79947
0.79999
0.8
0.8
0.8
0.8
0.8
0.8
0.8
0.8
0.8
0.8
0.8
0.8
0.8
0.8
0.8
0.8
0.8
0.782385
0.78849
0.795523
0.798844
0.799776
0.799966
0.799996
0.8
0.8
0.8
0.484275
0.488782
0.494598
0.501653
0.509938
0.519546
0.53073
0.544108
0.561347
0.589075
0.782478
0.799496
0.799991
0.8
0.8
0.8
0.8
0.8
0.8
0.8
0.8
0.8
0.8
0.8
0.8
0.8
0.8
0.8
0.8
0.8
0.793645
0.796352
0.798705
0.799674
0.799936
0.79999
0.799999
0.8
0.8
0.8
0.493985
0.49835
0.50396
0.510773
0.518811
0.5282
0.539242
0.55265
0.57035
0.600028
0.783831
0.799545
0.799992
0.8
0.8
0.8
0.8
0.8
0.8
0.8
0.8
0.8
0.8
0.8
0.8
0.8
0.8
0.8
0.8
0.8
0.79802
0.798955
0.799644
0.799911
0.799982
0.799997
0.8
0.8
0.8
0.8
0.50304
0.507284
0.512712
0.519309
0.527121
0.53631
0.547231
0.560709
0.578979
0.611025
0.785433
0.799607
0.799993
0.8
0.8
0.8
0.8
0.8
0.8
0.8
0.8
0.8
0.8
0.8
0.8
0.8
0.8
0.8
0.8
0.8
0.799426
0.799713
0.799904
0.799976
0.799995
0.799999
0.8
0.8
0.8
0.8
0.511539
0.515679
0.520944
0.52734
0.534942
0.543947
0.55477
0.568367
0.587342
0.622259
0.787174
0.799673
0.799994
0.8
0.8
0.8
0.8
0.8
0.8
0.8
0.8
0.8
0.8
0.8
0.8
0.8
0.8
0.8
0.8
0.8
0.79984
0.799923
0.799975
0.799994
0.799999
0.8
0.8
0.8
0.8
0.8
0.519571
0.523619
0.528731
0.534937
0.542339
0.551173
0.561922
0.575694
0.59553
0.633875
0.788969
0.799736
0.799996
0.8
0.8
0.8
0.8
0.8
0.8
0.8
0.8
0.8
0.8
0.8
0.8
0.8
0.8
0.8
0.8
0.8
0.799956
0.799979
0.799993
0.799998
0.8
0.8
0.8
0.8
0.8
0.8
0.527216
0.53118
0.536146
0.542166
0.549373
0.558044
0.568741
0.58275
0.603595
0.646035
0.790744
0.799795
0.799997
0.8
0.8
0.8
0.8
0.8
0.8
0.8
0.8
0.8
0.8
0.8
0.8
0.8
0.8
0.8
0.8
0.8
0.799988
0.799995
0.799998
0.8
0.8
0.8
0.8
0.8
0.8
0.8
0.534549
0.538432
0.543254
0.549087
0.556098
0.56461
0.575275
0.589589
0.611575
0.658882
0.792432
0.799844
0.799998
0.8
0.8
0.8
0.8
0.8
0.8
0.8
0.8
0.8
0.8
0.8
0.8
0.8
0.8
0.8
0.8
0.8
0.799997
0.799999
0.8
0.8
0.8
0.8
0.8
0.8
0.8
0.8
0.541639
0.545443
0.550115
0.555755
0.562564
0.570916
0.581567
0.596243
0.619506
0.672488
0.793972
0.799885
0.799998
0.8
0.8
0.8
0.8
0.8
0.8
0.8
0.8
0.8
0.8
0.8
0.8
0.8
0.8
0.8
0.8
0.8
0.799999
0.8
0.8
0.8
0.8
0.8
0.8
0.8
0.8
0.8
0.548555
0.552276
0.556792
0.562228
0.56882
0.577004
0.587653
0.602719
0.627417
0.686755
0.795311
0.799917
0.799999
0.8
0.8
0.8
0.8
0.8
0.8
0.8
0.8
0.8
0.8
0.8
0.8
0.8
0.8
0.8
0.8
0.8
0.8
0.8
0.8
0.8
0.8
0.8
0.8
0.8
0.8
0.8
0.555369
0.559002
0.563349
0.568564
0.574919
0.582917
0.593562
0.609008
0.635308
0.701267
0.796409
0.79994
0.799999
0.8
0.8
0.8
0.8
0.8
0.8
0.8
0.8
0.8
0.8
0.8
0.8
0.8
0.8
0.8
0.8
0.8
0.8
0.8
0.8
0.8
0.8
0.8
0.8
0.8
0.8
0.8
0.562163
0.565698
0.569862
0.574833
0.580923
0.588706
0.599303
0.615076
0.643107
0.715156
0.797248
0.799956
0.799999
0.8
0.8
0.8
0.8
0.8
0.8
0.8
0.8
0.8
0.8
0.8
0.8
0.8
0.8
0.8
0.8
0.8
0.8
0.8
0.8
0.8
0.8
0.8
0.8
0.8
0.8
0.8
0.569033
0.572462
0.576426
0.581129
0.58692
0.594436
0.604873
0.62085
0.650601
0.727157
0.797831
0.799967
0.8
0.8
0.8
0.8
0.8
0.8
0.8
0.8
0.8
0.8
0.8
0.8
0.8
0.8
0.8
0.8
0.8
0.8
0.8
0.8
0.8
0.8
0.8
0.8
0.8
0.8
0.8
0.8
0.576112
0.579426
0.583177
0.587588
0.593038
0.600195
0.610293
0.626225
0.657342
0.73586
0.798169
0.799973
0.8
0.8
0.8
0.8
0.8
0.8
0.8
0.8
0.8
0.8
0.8
0.8
0.8
0.8
0.8
0.8
0.8
0.8
0.8
0.8
0.8
0.8
0.8
0.8
0.8
0.8
0.8
0.8
0.583591
0.586788
0.590321
0.594423
0.599476
0.606125
0.615641
0.631092
0.662604
0.73984
0.79824
0.799974
0.8
0.8
0.8
0.8
0.8
0.8
0.8
0.8
0.8
0.8
0.8