/*--------------------------------*- C++ -*----------------------------------*\
| =========                 |                                                 |
| \\      /  F ield         | OpenFOAM: The Open Source CFD Toolbox           |
|  \\    /   O peration     | Version:  2.1.0                                 |
|   \\  /    A nd           | Web:      www.OpenFOAM.org                      |
|    \\/     M anipulation  |                                                 |
\*---------------------------------------------------------------------------*/
FoamFile
{
    version     2.0;
    format      ascii;
    class       volScalarField;
    location    "16060";
    object      sw;
}
// * * * * * * * * * * * * * * * * * * * * * * * * * * * * * * * * * * * * * //

dimensions      [0 0 0 0 0 0 0];

internalField   nonuniform List<scalar> 
8000
(
0.676998
0.661639
0.643456
0.624527
0.605887
0.587985
0.570971
0.554914
0.539838
0.52573
0.512547
0.500224
0.488683
0.477854
0.467671
0.458027
0.448819
0.439945
0.431306
0.422798
0.414314
0.405737
0.396935
0.387754
0.377998
0.367401
0.355604
0.342143
0.326516
0.308391
0.287185
0.262621
0.236829
0.215749
0.204548
0.20093
0.200142
0.200016
0.200001
0.2
0.661641
0.64811
0.631853
0.614624
0.597363
0.580522
0.56432
0.548884
0.534281
0.520527
0.507604
0.495465
0.48405
0.473309
0.463171
0.453533
0.444294
0.435353
0.426611
0.417963
0.4093
0.400504
0.391444
0.381963
0.371855
0.360844
0.348564
0.334573
0.318462
0.300068
0.278922
0.25518
0.23134
0.212877
0.203601
0.200724
0.200109
0.200012
0.200001
0.2
0.643456
0.631853
0.61767
0.602315
0.586606
0.570994
0.555755
0.541067
0.527034
0.513707
0.501097
0.489181
0.477926
0.467305
0.457235
0.447618
0.438358
0.429355
0.42051
0.41172
0.402877
0.393867
0.384562
0.374802
0.364378
0.353015
0.340368
0.326063
0.309861
0.29167
0.271071
0.248539
0.226701
0.210545
0.202851
0.20056
0.200083
0.200009
0.200001
0.2
0.624527
0.614624
0.602315
0.588697
0.574464
0.560062
0.545795
0.531866
0.518408
0.505505
0.493196
0.481491
0.470399
0.459885
0.449864
0.440244
0.43093
0.421824
0.412827
0.403839
0.394756
0.385473
0.375863
0.365767
0.354987
0.343277
0.330363
0.316014
0.300213
0.282682
0.263153
0.242257
0.222562
0.208566
0.202235
0.200428
0.200062
0.200007
0.2
0.2
0.605888
0.597363
0.586606
0.574464
0.561531
0.548225
0.534844
0.521599
0.508642
0.496083
0.483998
0.472446
0.461463
0.450991
0.440948
0.431244
0.421783
0.412467
0.403196
0.393876
0.384413
0.374701
0.364616
0.354017
0.342747
0.330652
0.317625
0.303701
0.28878
0.272499
0.254709
0.235983
0.218665
0.206803
0.201709
0.200318
0.200045
0.200005
0.2
0.2
0.587985
0.580522
0.570994
0.560062
0.548225
0.535851
0.523209
0.510506
0.497899
0.485525
0.473514
0.461999
0.450984
0.440414
0.430202
0.420251
0.410458
0.400722
0.390948
0.381044
0.370912
0.360445
0.34954
0.338113
0.326138
0.313688
0.300964
0.287951
0.274505
0.260379
0.245278
0.229411
0.214818
0.205164
0.201246
0.200224
0.200031
0.200003
0.2
0.2
0.570972
0.56432
0.555756
0.545795
0.534844
0.523209
0.511121
0.498757
0.486266
0.473813
0.461633
0.449887
0.438586
0.427662
0.417008
0.406506
0.396042
0.385512
0.374811
0.363831
0.352467
0.340639
0.328341
0.315698
0.302989
0.290426
0.278312
0.266903
0.256172
0.245656
0.234532
0.222354
0.210924
0.203624
0.200838
0.200146
0.200019
0.200002
0.2
0.2
0.554914
0.548884
0.541068
0.531866
0.521599
0.510506
0.498757
0.486472
0.473757
0.460809
0.447904
0.435421
0.423371
0.41162
0.400009
0.388389
0.376624
0.36457
0.352091
0.33908
0.325521
0.311552
0.29733
0.283217
0.269859
0.257972
0.248062
0.240218
0.234053
0.228681
0.222746
0.214987
0.207122
0.202253
0.200503
0.200085
0.200011
0.200001
0.2
0.2
0.539838
0.534281
0.527034
0.518409
0.508642
0.4979
0.486266
0.473757
0.460363
0.44602
0.430978
0.416716
0.402975
0.389416
0.375772
0.36181
0.347321
0.33216
0.316334
0.299879
0.283074
0.266688
0.251771
0.239218
0.229422
0.222299
0.217502
0.214616
0.213201
0.212647
0.211774
0.208348
0.203927
0.201204
0.200263
0.200044
0.200006
0.200001
0.2
0.2
0.52573
0.520527
0.513708
0.505505
0.496084
0.485526
0.473814
0.46081
0.44602
0.428185
0.405012
0.38626
0.368269
0.350003
0.330964
0.311081
0.290898
0.271207
0.253087
0.23765
0.225527
0.216707
0.210722
0.206898
0.204568
0.203209
0.202481
0.202216
0.202402
0.203188
0.204619
0.203885
0.20184
0.200554
0.20012
0.20002
0.200002
0.2
0.2
0.2
0.512547
0.507604
0.501097
0.493196
0.483998
0.473514
0.461633
0.447904
0.430978
0.405012
0.212614
0.207759
0.207187
0.206116
0.204876
0.203672
0.202622
0.201782
0.201162
0.200732
0.200451
0.200275
0.200168
0.200105
0.200068
0.200047
0.200037
0.200034
0.20004
0.200067
0.202588
0.201783
0.200766
0.200223
0.200048
0.200008
0.200001
0.2
0.2
0.2
0.500224
0.495466
0.489181
0.481491
0.472446
0.461999
0.449887
0.435422
0.416716
0.38626
0.207759
0.200228
0.200117
0.2001
0.200078
0.200057
0.200039
0.200026
0.200016
0.20001
0.200006
0.200004
0.200002
0.200001
0.200001
0.200001
0.2
0.2
0.2
0.200001
0.201177
0.200716
0.200285
0.200081
0.200017
0.200003
0.2
0.2
0.2
0.2
0.488683
0.484051
0.477926
0.470399
0.461463
0.450985
0.438586
0.423371
0.402975
0.368269
0.207187
0.200117
0.200003
0.200001
0.200001
0.200001
0.2
0.2
0.2
0.2
0.2
0.2
0.2
0.2
0.2
0.2
0.2
0.2
0.2
0.2
0.200456
0.200256
0.200097
0.200027
0.200006
0.200001
0.2
0.2
0.2
0.2
0.477854
0.47331
0.467305
0.459885
0.450991
0.440414
0.427662
0.41162
0.389416
0.350003
0.206116
0.2001
0.200001
0.2
0.2
0.2
0.2
0.2
0.2
0.2
0.2
0.2
0.2
0.2
0.2
0.2
0.2
0.2
0.2
0.2
0.200158
0.200084
0.200031
0.200009
0.200002
0.2
0.2
0.2
0.2
0.2
0.467671
0.463171
0.457235
0.449865
0.440948
0.430202
0.417008
0.400009
0.375772
0.330964
0.204876
0.200078
0.200001
0.2
0.2
0.2
0.2
0.2
0.2
0.2
0.2
0.2
0.2
0.2
0.2
0.2
0.2
0.2
0.2
0.2
0.200051
0.200026
0.200009
0.200003
0.200001
0.2
0.2
0.2
0.2
0.2
0.458027
0.453534
0.447618
0.440245
0.431245
0.420251
0.406506
0.388389
0.36181
0.311081
0.203672
0.200057
0.200001
0.2
0.2
0.2
0.2
0.2
0.2
0.2
0.2
0.2
0.2
0.2
0.2
0.2
0.2
0.2
0.2
0.2
0.200016
0.200008
0.200003
0.200001
0.2
0.2
0.2
0.2
0.2
0.2
0.448819
0.444294
0.438358
0.43093
0.421783
0.410458
0.396042
0.376624
0.347321
0.290898
0.202622
0.200039
0.2
0.2
0.2
0.2
0.2
0.2
0.2
0.2
0.2
0.2
0.2
0.2
0.2
0.2
0.2
0.2
0.2
0.2
0.200005
0.200002
0.200001
0.2
0.2
0.2
0.2
0.2
0.2
0.2
0.439945
0.435354
0.429355
0.421824
0.412467
0.400722
0.385512
0.36457
0.33216
0.271208
0.201782
0.200026
0.2
0.2
0.2
0.2
0.2
0.2
0.2
0.2
0.2
0.2
0.2
0.2
0.2
0.2
0.2
0.2
0.2
0.2
0.200001
0.200001
0.2
0.2
0.2
0.2
0.2
0.2
0.2
0.2
0.431306
0.426611
0.42051
0.412827
0.403196
0.390948
0.374812
0.352091
0.316334
0.253087
0.201162
0.200016
0.2
0.2
0.2
0.2
0.2
0.2
0.2
0.2
0.2
0.2
0.2
0.2
0.2
0.2
0.2
0.2
0.2
0.2
0.2
0.2
0.2
0.2
0.2
0.2
0.2
0.2
0.2
0.2
0.422798
0.417963
0.41172
0.403839
0.393876
0.381045
0.363832
0.33908
0.299879
0.23765
0.200732
0.20001
0.2
0.2
0.2
0.2
0.2
0.2
0.2
0.2
0.2
0.2
0.2
0.2
0.2
0.2
0.2
0.2
0.2
0.2
0.2
0.2
0.2
0.2
0.2
0.2
0.2
0.2
0.2
0.2
0.414314
0.4093
0.402877
0.394756
0.384413
0.370912
0.352467
0.325521
0.283074
0.225527
0.200451
0.200006
0.2
0.2
0.2
0.2
0.2
0.2
0.2
0.2
0.2
0.2
0.2
0.2
0.2
0.2
0.2
0.2
0.2
0.2
0.2
0.2
0.2
0.2
0.2
0.2
0.2
0.2
0.2
0.2
0.405737
0.400504
0.393867
0.385473
0.374701
0.360445
0.34064
0.311552
0.266688
0.216707
0.200275
0.200004
0.2
0.2
0.2
0.2
0.2
0.2
0.2
0.2
0.2
0.2
0.2
0.2
0.2
0.2
0.2
0.2
0.2
0.2
0.2
0.2
0.2
0.2
0.2
0.2
0.2
0.2
0.2
0.2
0.396935
0.391444
0.384562
0.375863
0.364616
0.34954
0.328341
0.29733
0.251772
0.210722
0.200168
0.200002
0.2
0.2
0.2
0.2
0.2
0.2
0.2
0.2
0.2
0.2
0.2
0.2
0.2
0.2
0.2
0.2
0.2
0.2
0.2
0.2
0.2
0.2
0.2
0.2
0.2
0.2
0.2
0.2
0.387754
0.381963
0.374802
0.365767
0.354017
0.338114
0.315698
0.283217
0.239218
0.206898
0.200105
0.200001
0.2
0.2
0.2
0.2
0.2
0.2
0.2
0.2
0.2
0.2
0.2
0.2
0.2
0.2
0.2
0.2
0.2
0.2
0.2
0.2
0.2
0.2
0.2
0.2
0.2
0.2
0.2
0.2
0.377998
0.371855
0.364378
0.354987
0.342747
0.326138
0.302989
0.269859
0.229422
0.204568
0.200068
0.200001
0.2
0.2
0.2
0.2
0.2
0.2
0.2
0.2
0.2
0.2
0.2
0.2
0.2
0.2
0.2
0.2
0.2
0.2
0.2
0.2
0.2
0.2
0.2
0.2
0.2
0.2
0.2
0.2
0.367401
0.360844
0.353015
0.343277
0.330652
0.313689
0.290426
0.257972
0.222299
0.203209
0.200047
0.200001
0.2
0.2
0.2
0.2
0.2
0.2
0.2
0.2
0.2
0.2
0.2
0.2
0.2
0.2
0.2
0.2
0.2
0.2
0.2
0.2
0.2
0.2
0.2
0.2
0.2
0.2
0.2
0.2
0.355604
0.348564
0.340368
0.330363
0.317625
0.300964
0.278312
0.248062
0.217502
0.202481
0.200037
0.2
0.2
0.2
0.2
0.2
0.2
0.2
0.2
0.2
0.2
0.2
0.2
0.2
0.2
0.2
0.2
0.2
0.2
0.2
0.2
0.2
0.2
0.2
0.2
0.2
0.2
0.2
0.2
0.2
0.342143
0.334573
0.326063
0.316015
0.303701
0.287951
0.266903
0.240218
0.214616
0.202216
0.200034
0.2
0.2
0.2
0.2
0.2
0.2
0.2
0.2
0.2
0.2
0.2
0.2
0.2
0.2
0.2
0.2
0.2
0.2
0.2
0.2
0.2
0.2
0.2
0.2
0.2
0.2
0.2
0.2
0.2
0.326516
0.318462
0.309861
0.300213
0.28878
0.274505
0.256172
0.234053
0.213201
0.202402
0.20004
0.2
0.2
0.2
0.2
0.2
0.2
0.2
0.2
0.2
0.2
0.2
0.2
0.2
0.2
0.2
0.2
0.2
0.2
0.2
0.2
0.2
0.2
0.2
0.2
0.2
0.2
0.2
0.2
0.2
0.308391
0.300068
0.29167
0.282682
0.272499
0.260379
0.245656
0.228681
0.212647
0.203188
0.200067
0.200001
0.2
0.2
0.2
0.2
0.2
0.2
0.2
0.2
0.2
0.2
0.2
0.2
0.2
0.2
0.2
0.2
0.2
0.2
0.2
0.2
0.2
0.2
0.2
0.2
0.2
0.2
0.2
0.2
0.287185
0.278922
0.271071
0.263153
0.25471
0.245278
0.234532
0.222746
0.211774
0.204619
0.202588
0.201177
0.200456
0.200158
0.200051
0.200016
0.200005
0.200001
0.2
0.2
0.2
0.2
0.2
0.2
0.2
0.2
0.2
0.2
0.2
0.2
0.2
0.2
0.2
0.2
0.2
0.2
0.2
0.2
0.2
0.2
0.262621
0.25518
0.248539
0.242257
0.235983
0.229411
0.222354
0.214987
0.208348
0.203885
0.201783
0.200716
0.200256
0.200084
0.200026
0.200008
0.200002
0.200001
0.2
0.2
0.2
0.2
0.2
0.2
0.2
0.2
0.2
0.2
0.2
0.2
0.2
0.2
0.2
0.2
0.2
0.2
0.2
0.2
0.2
0.2
0.236829
0.23134
0.226701
0.222562
0.218665
0.214818
0.210924
0.207122
0.203927
0.20184
0.200766
0.200285
0.200097
0.200031
0.200009
0.200003
0.200001
0.2
0.2
0.2
0.2
0.2
0.2
0.2
0.2
0.2
0.2
0.2
0.2
0.2
0.2
0.2
0.2
0.2
0.2
0.2
0.2
0.2
0.2
0.2
0.215749
0.212877
0.210545
0.208566
0.206803
0.205164
0.203624
0.202253
0.201204
0.200554
0.200223
0.200081
0.200027
0.200009
0.200003
0.200001
0.2
0.2
0.2
0.2
0.2
0.2
0.2
0.2
0.2
0.2
0.2
0.2
0.2
0.2
0.2
0.2
0.2
0.2
0.2
0.2
0.2
0.2
0.2
0.2
0.204548
0.203601
0.202851
0.202235
0.201709
0.201246
0.200838
0.200503
0.200263
0.20012
0.200048
0.200017
0.200006
0.200002
0.200001
0.2
0.2
0.2
0.2
0.2
0.2
0.2
0.2
0.2
0.2
0.2
0.2
0.2
0.2
0.2
0.2
0.2
0.2
0.2
0.2
0.2
0.2
0.2
0.2
0.2
0.200931
0.200724
0.20056
0.200428
0.200318
0.200224
0.200146
0.200085
0.200044
0.20002
0.200008
0.200003
0.200001
0.2
0.2
0.2
0.2
0.2
0.2
0.2
0.2
0.2
0.2
0.2
0.2
0.2
0.2
0.2
0.2
0.2
0.2
0.2
0.2
0.2
0.2
0.2
0.2
0.2
0.2
0.2
0.200142
0.200109
0.200083
0.200062
0.200045
0.200031
0.200019
0.200011
0.200006
0.200002
0.200001
0.2
0.2
0.2
0.2
0.2
0.2
0.2
0.2
0.2
0.2
0.2
0.2
0.2
0.2
0.2
0.2
0.2
0.2
0.2
0.2
0.2
0.2
0.2
0.2
0.2
0.2
0.2
0.2
0.2
0.200016
0.200012
0.200009
0.200007
0.200005
0.200003
0.200002
0.200001
0.200001
0.2
0.2
0.2
0.2
0.2
0.2
0.2
0.2
0.2
0.2
0.2
0.2
0.2
0.2
0.2
0.2
0.2
0.2
0.2
0.2
0.2
0.2
0.2
0.2
0.2
0.2
0.2
0.2
0.2
0.2
0.2
0.200001
0.200001
0.200001
0.2
0.2
0.2
0.2
0.2
0.2
0.2
0.2
0.2
0.2
0.2
0.2
0.2
0.2
0.2
0.2
0.2
0.2
0.2
0.2
0.2
0.2
0.2
0.2
0.2
0.2
0.2
0.2
0.2
0.2
0.2
0.2
0.2
0.2
0.2
0.2
0.2
0.2
0.2
0.2
0.2
0.2
0.2
0.2
0.2
0.2
0.2
0.2
0.2
0.2
0.2
0.2
0.2
0.2
0.2
0.2
0.2
0.2
0.2
0.2
0.2
0.2
0.2
0.2
0.2
0.2
0.2
0.2
0.2
0.2
0.2
0.2
0.2
0.2
0.2
0.2
0.2
0.74303
0.723196
0.699281
0.674661
0.651038
0.629091
0.608977
0.590615
0.57383
0.558468
0.5444
0.531503
0.519645
0.508683
0.498478
0.488945
0.479986
0.47151
0.463433
0.455678
0.448174
0.440855
0.433654
0.426505
0.419338
0.412075
0.404621
0.396821
0.388339
0.378296
0.365371
0.347426
0.320594
0.280891
0.236194
0.209399
0.20155
0.200176
0.200013
0.2
0.723202
0.705455
0.684219
0.662123
0.640585
0.620255
0.601356
0.583884
0.56775
0.552875
0.539179
0.526565
0.514925
0.504117
0.494034
0.484593
0.475704
0.467278
0.459237
0.451509
0.444026
0.436727
0.42955
0.422433
0.415314
0.408122
0.400765
0.393078
0.384666
0.374537
0.361373
0.342868
0.314981
0.274358
0.231363
0.207744
0.201244
0.200139
0.20001
0.2
0.699279
0.68422
0.666024
0.646743
0.627567
0.60911
0.591639
0.575226
0.559885
0.545615
0.532383
0.520132
0.508766
0.498161
0.488252
0.478953
0.470181
0.461856
0.453904
0.44626
0.438863
0.431658
0.424589
0.417604
0.410649
0.40366
0.396544
0.389102
0.380827
0.370683
0.357377
0.338403
0.309551
0.268211
0.227108
0.206365
0.200993
0.200109
0.200008
0.2
0.674661
0.662125
0.646744
0.630102
0.613186
0.596555
0.580492
0.565148
0.550626
0.536985
0.524241
0.512367
0.501278
0.490903
0.481189
0.472056
0.463427
0.45523
0.4474
0.439878
0.432611
0.425552
0.418656
0.411881
0.405184
0.398505
0.391734
0.384607
0.376459
0.366416
0.353088
0.333752
0.304017
0.262179
0.223228
0.205178
0.200782
0.200083
0.200006
0.2
0.651039
0.640586
0.627567
0.613185
0.598241
0.583218
0.568417
0.554055
0.540288
0.527221
0.514914
0.503362
0.492515
0.482359
0.47283
0.463858
0.455372
0.447309
0.43961
0.432224
0.425107
0.418222
0.411537
0.405022
0.398641
0.392326
0.385914
0.37901
0.371039
0.361243
0.348064
0.328502
0.297963
0.255899
0.219512
0.204113
0.200597
0.200062
0.200004
0.2
0.629091
0.620255
0.609109
0.596555
0.583217
0.569526
0.555795
0.54226
0.529105
0.516475
0.504467
0.493106
0.482442
0.472447
0.46306
0.454215
0.445845
0.437893
0.430306
0.42304
0.41606
0.40934
0.402855
0.396576
0.39045
0.384355
0.378026
0.371237
0.3636
0.354274
0.341519
0.32194
0.290705
0.248867
0.215762
0.203121
0.200434
0.200043
0.200003
0.2
0.608977
0.601356
0.591639
0.580491
0.568417
0.555795
0.542914
0.529998
0.517237
0.504796
0.492809
0.481479
0.470863
0.460924
0.451595
0.442803
0.434484
0.426577
0.419033
0.411812
0.404877
0.398191
0.391703
0.385323
0.378903
0.372443
0.365926
0.359244
0.352074
0.343585
0.33182
0.31268
0.28105
0.240445
0.21186
0.202192
0.20029
0.200028
0.200002
0.2
0.590615
0.583884
0.575225
0.565147
0.554055
0.54226
0.529998
0.51745
0.504758
0.492052
0.479671
0.468061
0.45727
0.447212
0.437784
0.428893
0.420461
0.412415
0.404686
0.397197
0.389847
0.382468
0.374997
0.367436
0.359797
0.352157
0.344684
0.337601
0.330988
0.32427
0.31519
0.29793
0.267146
0.230202
0.207936
0.201369
0.200173
0.200016
0.200001
0.2
0.57383
0.56775
0.559885
0.550626
0.540288
0.529105
0.517237
0.504758
0.491636
0.477946
0.464146
0.451667
0.440289
0.429736
0.419811
0.410366
0.401263
0.392338
0.383361
0.374178
0.364691
0.354751
0.344199
0.332955
0.32117
0.309414
0.298777
0.290687
0.286299
0.285458
0.285046
0.274297
0.248102
0.219081
0.204506
0.200736
0.20009
0.200008
0.2
0.2
0.558468
0.552875
0.545615
0.536985
0.527221
0.516475
0.504796
0.492053
0.477946
0.461715
0.442122
0.427373
0.414202
0.401779
0.389695
0.377603
0.365023
0.351655
0.337222
0.321467
0.304375
0.286446
0.268842
0.253109
0.240477
0.231407
0.225801
0.223584
0.225295
0.232476
0.245782
0.245973
0.228077
0.209782
0.20213
0.200337
0.200041
0.200004
0.2
0.2
0.5444
0.539179
0.532383
0.524241
0.514914
0.504467
0.492809
0.479671
0.464146
0.442122
0.220792
0.214545
0.214898
0.214254
0.213045
0.211524
0.209844
0.208122
0.206454
0.204925
0.203604
0.202539
0.201741
0.201184
0.20082
0.200597
0.200478
0.200447
0.200536
0.20092
0.231968
0.226583
0.213511
0.204107
0.200852
0.200134
0.200016
0.200001
0.2
0.2
0.531503
0.526565
0.520132
0.512367
0.503362
0.493106
0.481479
0.468062
0.451667
0.427373
0.214545
0.200597
0.200349
0.200341
0.200308
0.200262
0.200211
0.200162
0.200119
0.200084
0.200057
0.200038
0.200025
0.200016
0.200011
0.200008
0.200006
0.200006
0.200007
0.20001
0.217685
0.21241
0.205311
0.201476
0.200301
0.200047
0.200006
0.200001
0.2
0.2
0.519646
0.514925
0.508766
0.501278
0.492515
0.482442
0.470863
0.45727
0.440289
0.414202
0.214898
0.200349
0.20001
0.200005
0.200005
0.200004
0.200003
0.200002
0.200002
0.200001
0.200001
0.2
0.2
0.2
0.2
0.2
0.2
0.2
0.2
0.2
0.207684
0.204688
0.201791
0.200478
0.200097
0.200015
0.200002
0.2
0.2
0.2
0.508684
0.504117
0.498161
0.490903
0.482359
0.472447
0.460924
0.447212
0.429736
0.401779
0.214254
0.200341
0.200005
0.2
0.2
0.2
0.2
0.2
0.2
0.2
0.2
0.2
0.2
0.2
0.2
0.2
0.2
0.2
0.2
0.2
0.202764
0.20153
0.200551
0.200145
0.20003
0.200005
0.200001
0.2
0.2
0.2
0.498478
0.494034
0.488252
0.481189
0.47283
0.463061
0.451595
0.437784
0.419811
0.389695
0.213045
0.200308
0.200005
0.2
0.2
0.2
0.2
0.2
0.2
0.2
0.2
0.2
0.2
0.2
0.2
0.2
0.2
0.2
0.2
0.2
0.200885
0.200461
0.200161
0.200042
0.200009
0.200001
0.2
0.2
0.2
0.2
0.488945
0.484594
0.478954
0.472056
0.463858
0.454215
0.442804
0.428893
0.410366
0.377603
0.211524
0.200262
0.200004
0.2
0.2
0.2
0.2
0.2
0.2
0.2
0.2
0.2
0.2
0.2
0.2
0.2
0.2
0.2
0.2
0.2
0.200267
0.200133
0.200046
0.200012
0.200002
0.2
0.2
0.2
0.2
0.2
0.479987
0.475704
0.470181
0.463427
0.455373
0.445845
0.434484
0.420461
0.401263
0.365023
0.209844
0.200211
0.200003
0.2
0.2
0.2
0.2
0.2
0.2
0.2
0.2
0.2
0.2
0.2
0.2
0.2
0.2
0.2
0.2
0.2
0.200078
0.200038
0.200013
0.200003
0.200001
0.2
0.2
0.2
0.2
0.2
0.47151
0.467278
0.461856
0.45523
0.447309
0.437893
0.426577
0.412415
0.392338
0.351655
0.208122
0.200162
0.200002
0.2
0.2
0.2
0.2
0.2
0.2
0.2
0.2
0.2
0.2
0.2
0.2
0.2
0.2
0.2
0.2
0.2
0.200022
0.200011
0.200004
0.200001
0.2
0.2
0.2
0.2
0.2
0.2
0.463433
0.459237
0.453904
0.4474
0.43961
0.430306
0.419033
0.404686
0.383361
0.337222
0.206454
0.200119
0.200002
0.2
0.2
0.2
0.2
0.2
0.2
0.2
0.2
0.2
0.2
0.2
0.2
0.2
0.2
0.2
0.2
0.2
0.200006
0.200003
0.200001
0.2
0.2
0.2
0.2
0.2
0.2
0.2
0.455678
0.451509
0.44626
0.439878
0.432224
0.42304
0.411812
0.397197
0.374178
0.321467
0.204925
0.200084
0.200001
0.2
0.2
0.2
0.2
0.2
0.2
0.2
0.2
0.2
0.2
0.2
0.2
0.2
0.2
0.2
0.2
0.2
0.200002
0.200001
0.2
0.2
0.2
0.2
0.2
0.2
0.2
0.2
0.448174
0.444026
0.438863
0.432612
0.425107
0.41606
0.404877
0.389847
0.364691
0.304375
0.203604
0.200057
0.200001
0.2
0.2
0.2
0.2
0.2
0.2
0.2
0.2
0.2
0.2
0.2
0.2
0.2
0.2
0.2
0.2
0.2
0.2
0.2
0.2
0.2
0.2
0.2
0.2
0.2
0.2
0.2
0.440855
0.436727
0.431658
0.425552
0.418222
0.40934
0.398191
0.382468
0.354751
0.286446
0.202539
0.200038
0.2
0.2
0.2
0.2
0.2
0.2
0.2
0.2
0.2
0.2
0.2
0.2
0.2
0.2
0.2
0.2
0.2
0.2
0.2
0.2
0.2
0.2
0.2
0.2
0.2
0.2
0.2
0.2
0.433654
0.42955
0.424589
0.418656
0.411537
0.402855
0.391703
0.374997
0.344199
0.268843
0.201741
0.200025
0.2
0.2
0.2
0.2
0.2
0.2
0.2
0.2
0.2
0.2
0.2
0.2
0.2
0.2
0.2
0.2
0.2
0.2
0.2
0.2
0.2
0.2
0.2
0.2
0.2
0.2
0.2
0.2
0.426506
0.422433
0.417604
0.411881
0.405022
0.396576
0.385323
0.367436
0.332955
0.253109
0.201184
0.200016
0.2
0.2
0.2
0.2
0.2
0.2
0.2
0.2
0.2
0.2
0.2
0.2
0.2
0.2
0.2
0.2
0.2
0.2
0.2
0.2
0.2
0.2
0.2
0.2
0.2
0.2
0.2
0.2
0.419338
0.415314
0.410649
0.405184
0.398641
0.39045
0.378903
0.359797
0.32117
0.240477
0.20082
0.200011
0.2
0.2
0.2
0.2
0.2
0.2
0.2
0.2
0.2
0.2
0.2
0.2
0.2
0.2
0.2
0.2
0.2
0.2
0.2
0.2
0.2
0.2
0.2
0.2
0.2
0.2
0.2
0.2
0.412075
0.408122
0.40366
0.398505
0.392326
0.384355
0.372443
0.352157
0.309414
0.231407
0.200597
0.200008
0.2
0.2
0.2
0.2
0.2
0.2
0.2
0.2
0.2
0.2
0.2
0.2
0.2
0.2
0.2
0.2
0.2
0.2
0.2
0.2
0.2
0.2
0.2
0.2
0.2
0.2
0.2
0.2
0.404621
0.400765
0.396544
0.391735
0.385915
0.378026
0.365926
0.344684
0.298777
0.225801
0.200478
0.200006
0.2
0.2
0.2
0.2
0.2
0.2
0.2
0.2
0.2
0.2
0.2
0.2
0.2
0.2
0.2
0.2
0.2
0.2
0.2
0.2
0.2
0.2
0.2
0.2
0.2
0.2
0.2
0.2
0.396821
0.393078
0.389103
0.384607
0.37901
0.371237
0.359244
0.337601
0.290687
0.223584
0.200447
0.200006
0.2
0.2
0.2
0.2
0.2
0.2
0.2
0.2
0.2
0.2
0.2
0.2
0.2
0.2
0.2
0.2
0.2
0.2
0.2
0.2
0.2
0.2
0.2
0.2
0.2
0.2
0.2
0.2
0.388339
0.384666
0.380827
0.376459
0.371039
0.3636
0.352074
0.330988
0.286299
0.225295
0.200536
0.200007
0.2
0.2
0.2
0.2
0.2
0.2
0.2
0.2
0.2
0.2
0.2
0.2
0.2
0.2
0.2
0.2
0.2
0.2
0.2
0.2
0.2
0.2
0.2
0.2
0.2
0.2
0.2
0.2
0.378297
0.374537
0.370683
0.366416
0.361243
0.354274
0.343585
0.32427
0.285458
0.232476
0.20092
0.20001
0.2
0.2
0.2
0.2
0.2
0.2
0.2
0.2
0.2
0.2
0.2
0.2
0.2
0.2
0.2
0.2
0.2
0.2
0.2
0.2
0.2
0.2
0.2
0.2
0.2
0.2
0.2
0.2
0.365371
0.361373
0.357377
0.353088
0.348064
0.341519
0.33182
0.31519
0.285046
0.245782
0.231968
0.217685
0.207684
0.202764
0.200885
0.200267
0.200078
0.200022
0.200006
0.200002
0.2
0.2
0.2
0.2
0.2
0.2
0.2
0.2
0.2
0.2
0.2
0.2
0.2
0.2
0.2
0.2
0.2
0.2
0.2
0.2
0.347427
0.342868
0.338403
0.333752
0.328502
0.32194
0.31268
0.29793
0.274297
0.245973
0.226583
0.21241
0.204688
0.20153
0.200461
0.200133
0.200038
0.200011
0.200003
0.200001
0.2
0.2
0.2
0.2
0.2
0.2
0.2
0.2
0.2
0.2
0.2
0.2
0.2
0.2
0.2
0.2
0.2
0.2
0.2
0.2
0.320595
0.314981
0.309551
0.304017
0.297963
0.290706
0.28105
0.267146
0.248102
0.228077
0.213511
0.205311
0.201791
0.200551
0.200161
0.200046
0.200013
0.200004
0.200001
0.2
0.2
0.2
0.2
0.2
0.2
0.2
0.2
0.2
0.2
0.2
0.2
0.2
0.2
0.2
0.2
0.2
0.2
0.2
0.2
0.2
0.280891
0.274358
0.268212
0.262179
0.255899
0.248868
0.240445
0.230202
0.219081
0.209782
0.204107
0.201476
0.200478
0.200145
0.200042
0.200012
0.200003
0.200001
0.2
0.2
0.2
0.2
0.2
0.2
0.2
0.2
0.2
0.2
0.2
0.2
0.2
0.2
0.2
0.2
0.2
0.2
0.2
0.2
0.2
0.2
0.236195
0.231364
0.227109
0.223228
0.219512
0.215762
0.21186
0.207936
0.204506
0.20213
0.200852
0.200301
0.200097
0.20003
0.200009
0.200002
0.200001
0.2
0.2
0.2
0.2
0.2
0.2
0.2
0.2
0.2
0.2
0.2
0.2
0.2
0.2
0.2
0.2
0.2
0.2
0.2
0.2
0.2
0.2
0.2
0.209399
0.207745
0.206365
0.205178
0.204113
0.203121
0.202192
0.201369
0.200736
0.200337
0.200134
0.200047
0.200015
0.200005
0.200001
0.2
0.2
0.2
0.2
0.2
0.2
0.2
0.2
0.2
0.2
0.2
0.2
0.2
0.2
0.2
0.2
0.2
0.2
0.2
0.2
0.2
0.2
0.2
0.2
0.2
0.20155
0.201244
0.200993
0.200782
0.200597
0.200434
0.20029
0.200173
0.20009
0.200041
0.200016
0.200006
0.200002
0.200001
0.2
0.2
0.2
0.2
0.2
0.2
0.2
0.2
0.2
0.2
0.2
0.2
0.2
0.2
0.2
0.2
0.2
0.2
0.2
0.2
0.2
0.2
0.2
0.2
0.2
0.2
0.200176
0.200139
0.200109
0.200083
0.200062
0.200043
0.200028
0.200016
0.200008
0.200004
0.200001
0.200001
0.2
0.2
0.2
0.2
0.2
0.2
0.2
0.2
0.2
0.2
0.2
0.2
0.2
0.2
0.2
0.2
0.2
0.2
0.2
0.2
0.2
0.2
0.2
0.2
0.2
0.2
0.2
0.2
0.200013
0.20001
0.200008
0.200006
0.200004
0.200003
0.200002
0.200001
0.2
0.2
0.2
0.2
0.2
0.2
0.2
0.2
0.2
0.2
0.2
0.2
0.2
0.2
0.2
0.2
0.2
0.2
0.2
0.2
0.2
0.2
0.2
0.2
0.2
0.2
0.2
0.2
0.2
0.2
0.2
0.2
0.2
0.2
0.2
0.2
0.2
0.2
0.2
0.2
0.2
0.2
0.2
0.2
0.2
0.2
0.2
0.2
0.2
0.2
0.2
0.2
0.2
0.2
0.2
0.2
0.2
0.2
0.2
0.2
0.2
0.2
0.2
0.2
0.2
0.2
0.2
0.2
0.2
0.2
0.2
0.2
0.784771
0.766393
0.739668
0.710612
0.682669
0.657082
0.634086
0.613529
0.595126
0.578562
0.563574
0.549962
0.537553
0.526191
0.515725
0.506014
0.496959
0.488461
0.480429
0.472784
0.465451
0.458361
0.451445
0.444631
0.437837
0.430967
0.423888
0.416409
0.408226
0.398861
0.387564
0.372927
0.352234
0.320651
0.274202
0.22752
0.205544
0.200684
0.200052
0.200002
0.766407
0.746733
0.721878
0.695726
0.670437
0.646948
0.625526
0.606127
0.58856
0.572599
0.558062
0.544797
0.53266
0.521514
0.511217
0.50165
0.492715
0.484321
0.476381
0.46882
0.461567
0.454557
0.447724
0.440998
0.434302
0.427538
0.420574
0.413212
0.405132
0.395849
0.384573
0.369807
0.348668
0.316128
0.268963
0.224244
0.204692
0.200566
0.200043
0.200002
0.739664
0.721877
0.700308
0.677622
0.655356
0.634284
0.614713
0.59669
0.580125
0.564903
0.55093
0.538106
0.526323
0.515465
0.505402
0.49604
0.487287
0.479056
0.471269
0.463854
0.456746
0.449885
0.443208
0.43665
0.430138
0.423574
0.416823
0.409679
0.401812
0.392735
0.381611
0.36685
0.345379
0.311962
0.264175
0.221379
0.203967
0.200467
0.200034
0.200001
0.710608
0.695727
0.677623
0.658283
0.638917
0.620201
0.602462
0.585814
0.570264
0.555811
0.542432
0.530081
0.518685
0.508139
0.498347
0.489227
0.480691
0.47266
0.465063
0.457834
0.450913
0.444244
0.437772
0.431436
0.425167
0.418871
0.412411
0.405577
0.398043
0.389319
0.378507
0.363903
0.342217
0.307963
0.259616
0.218774
0.203328
0.200379
0.200027
0.200001
0.682668
0.67044
0.655358
0.638918
0.622091
0.605466
0.589367
0.573952
0.559332
0.545587
0.53276
0.520853
0.50982
0.499578
0.490062
0.481189
0.472878
0.465058
0.457661
0.450627
0.443902
0.437436
0.43118
0.425081
0.419076
0.41308
0.406962
0.400524
0.393474
0.38529
0.375001
0.360748
0.338966
0.303854
0.25498
0.216264
0.202738
0.2003
0.200021
0.200001
0.657083
0.646951
0.634286
0.620201
0.605467
0.590575
0.575829
0.561443
0.547592
0.534414
0.522016
0.510456
0.499706
0.489729
0.480454
0.4718
0.463689
0.456053
0.448827
0.441956
0.435389
0.429084
0.422996
0.417083
0.411294
0.405564
0.399805
0.393875
0.387491
0.380103
0.370644
0.357021
0.33527
0.299182
0.249831
0.213675
0.202166
0.200227
0.200015
0.2
0.634087
0.625528
0.614714
0.602463
0.589367
0.575829
0.562144
0.548546
0.53523
0.522379
0.510183
0.498774
0.488191
0.478385
0.46927
0.460758
0.452769
0.44523
0.438078
0.431259
0.424724
0.418433
0.412347
0.406438
0.400697
0.395126
0.389706
0.384359
0.378859
0.37266
0.364561
0.352024
0.33046
0.293134
0.243545
0.210864
0.201599
0.200158
0.20001
0.2
0.61353
0.606129
0.596691
0.585814
0.573952
0.561443
0.548546
0.535459
0.522355
0.509436
0.496992
0.485443
0.474819
0.465011
0.455892
0.44735
0.439291
0.431633
0.424306
0.41725
0.410411
0.403757
0.397281
0.390992
0.384924
0.37915
0.373774
0.368908
0.364538
0.360246
0.35465
0.344171
0.323111
0.284188
0.235366
0.207808
0.201058
0.200099
0.200006
0.2
0.595127
0.588562
0.580126
0.570265
0.559332
0.547592
0.53523
0.522355
0.509022
0.495285
0.481598
0.469363
0.458318
0.448155
0.438653
0.42965
0.421021
0.412658
0.40447
0.396404
0.388425
0.380494
0.372583
0.364692
0.356893
0.349399
0.342657
0.337396
0.334446
0.334073
0.334651
0.32937
0.310102
0.269845
0.225016
0.204794
0.200601
0.200053
0.200003
0.2
0.578563
0.5726
0.564904
0.555811
0.545587
0.534414
0.522379
0.509436
0.495285
0.479217
0.460151
0.446039
0.433619
0.422051
0.410925
0.399972
0.388975
0.377741
0.366125
0.353965
0.341118
0.327512
0.313245
0.298733
0.284844
0.272843
0.26414
0.26016
0.262647
0.273668
0.29254
0.302433
0.288075
0.248982
0.214269
0.202408
0.200286
0.200025
0.200001
0.2
0.563575
0.558063
0.55093
0.542433
0.53276
0.522017
0.510183
0.496992
0.481598
0.460151
0.224328
0.217768
0.218711
0.218465
0.217522
0.216169
0.214567
0.212826
0.211031
0.209256
0.207568
0.206028
0.204689
0.203591
0.202752
0.202169
0.201831
0.20176
0.202101
0.203505
0.280492
0.281947
0.261663
0.227003
0.20639
0.200996
0.200116
0.20001
0.200001
0.2
0.549963
0.544797
0.538106
0.530082
0.520853
0.510457
0.498774
0.485443
0.469363
0.446039
0.217768
0.200845
0.200519
0.20053
0.200504
0.200455
0.200393
0.200327
0.200264
0.200205
0.200156
0.200115
0.200083
0.20006
0.200044
0.200033
0.200027
0.200026
0.200031
0.200049
0.261836
0.256275
0.233791
0.211338
0.202345
0.200355
0.200041
0.200004
0.2
0.2
0.537554
0.53266
0.526323
0.518685
0.50982
0.499706
0.488191
0.474819
0.458318
0.433619
0.218711
0.200519
0.200018
0.20001
0.200009
0.200008
0.200007
0.200006
0.200004
0.200003
0.200002
0.200002
0.200001
0.200001
0.200001
0.2
0.2
0.2
0.2
0.2
0.238091
0.229526
0.213771
0.203848
0.200754
0.200114
0.200013
0.200001
0.2
0.2
0.526191
0.521514
0.515465
0.508139
0.499579
0.48973
0.478385
0.465011
0.448155
0.422051
0.218465
0.20053
0.20001
0.2
0.2
0.2
0.2
0.2
0.2
0.2
0.2
0.2
0.2
0.2
0.2
0.2
0.2
0.2
0.2
0.2
0.217615
0.21151
0.204477
0.201156
0.200224
0.200034
0.200004
0.2
0.2
0.2
0.515725
0.511218
0.505402
0.498347
0.490062
0.480454
0.46927
0.455892
0.438653
0.410925
0.217522
0.200504
0.200009
0.2
0.2
0.2
0.2
0.2
0.2
0.2
0.2
0.2
0.2
0.2
0.2
0.2
0.2
0.2
0.2
0.2
0.206355
0.203648
0.201295
0.200326
0.200064
0.20001
0.200001
0.2
0.2
0.2
0.506015
0.50165
0.49604
0.489227
0.481189
0.4718
0.460758
0.44735
0.42965
0.399972
0.216169
0.200455
0.200008
0.2
0.2
0.2
0.2
0.2
0.2
0.2
0.2
0.2
0.2
0.2
0.2
0.2
0.2
0.2
0.2
0.2
0.20198
0.201045
0.200356
0.200089
0.200018
0.200003
0.2
0.2
0.2
0.2
0.49696
0.492716
0.487288
0.480691
0.472879
0.46369
0.452769
0.439291
0.421021
0.388975
0.214567
0.200393
0.200007
0.2
0.2
0.2
0.2
0.2
0.2
0.2
0.2
0.2
0.2
0.2
0.2
0.2
0.2
0.2
0.2
0.2
0.200574
0.200287
0.200096
0.200024
0.200005
0.200001
0.2
0.2
0.2
0.2
0.488461
0.484321
0.479056
0.47266
0.465058
0.456053
0.44523
0.431633
0.412658
0.377741
0.212826
0.200327
0.200006
0.2
0.2
0.2
0.2
0.2
0.2
0.2
0.2
0.2
0.2
0.2
0.2
0.2
0.2
0.2
0.2
0.2
0.20016
0.200077
0.200025
0.200006
0.200001
0.2
0.2
0.2
0.2
0.2
0.480429
0.476381
0.471269
0.465063
0.457661
0.448827
0.438078
0.424306
0.40447
0.366125
0.211031
0.200264
0.200004
0.2
0.2
0.2
0.2
0.2
0.2
0.2
0.2
0.2
0.2
0.2
0.2
0.2
0.2
0.2
0.2
0.2
0.200044
0.200021
0.200007
0.200002
0.2
0.2
0.2
0.2
0.2
0.2
0.472784
0.46882
0.463854
0.457834
0.450627
0.441956
0.431259
0.41725
0.396405
0.353965
0.209256
0.200205
0.200003
0.2
0.2
0.2
0.2
0.2
0.2
0.2
0.2
0.2
0.2
0.2
0.2
0.2
0.2
0.2
0.2
0.2
0.200012
0.200005
0.200002
0.2
0.2
0.2
0.2
0.2
0.2
0.2
0.465451
0.461568
0.456746
0.450913
0.443902
0.43539
0.424725
0.410411
0.388425
0.341118
0.207568
0.200156
0.200002
0.2
0.2
0.2
0.2
0.2
0.2
0.2
0.2
0.2
0.2
0.2
0.2
0.2
0.2
0.2
0.2
0.2
0.200003
0.200001
0.2
0.2
0.2
0.2
0.2
0.2
0.2
0.2
0.458361
0.454557
0.449885
0.444245
0.437436
0.429084
0.418433
0.403757
0.380494
0.327512
0.206028
0.200115
0.200002
0.2
0.2
0.2
0.2
0.2
0.2
0.2
0.2
0.2
0.2
0.2
0.2
0.2
0.2
0.2
0.2
0.2
0.200001
0.2
0.2
0.2
0.2
0.2
0.2
0.2
0.2
0.2
0.451445
0.447724
0.443208
0.437772
0.43118
0.422996
0.412347
0.397281
0.372583
0.313245
0.204689
0.200083
0.200001
0.2
0.2
0.2
0.2
0.2
0.2
0.2
0.2
0.2
0.2
0.2
0.2
0.2
0.2
0.2
0.2
0.2
0.2
0.2
0.2
0.2
0.2
0.2
0.2
0.2
0.2
0.2
0.444631
0.440998
0.436651
0.431436
0.425081
0.417083
0.406438
0.390992
0.364692
0.298733
0.203591
0.20006
0.200001
0.2
0.2
0.2
0.2
0.2
0.2
0.2
0.2
0.2
0.2
0.2
0.2
0.2
0.2
0.2
0.2
0.2
0.2
0.2
0.2
0.2
0.2
0.2
0.2
0.2
0.2
0.2
0.437837
0.434302
0.430138
0.425167
0.419077
0.411294
0.400697
0.384924
0.356893
0.284844
0.202752
0.200044
0.200001
0.2
0.2
0.2
0.2
0.2
0.2
0.2
0.2
0.2
0.2
0.2
0.2
0.2
0.2
0.2
0.2
0.2
0.2
0.2
0.2
0.2
0.2
0.2
0.2
0.2
0.2
0.2
0.430967
0.427538
0.423574
0.418871
0.41308
0.405564
0.395127
0.37915
0.349399
0.272843
0.202169
0.200033
0.2
0.2
0.2
0.2
0.2
0.2
0.2
0.2
0.2
0.2
0.2
0.2
0.2
0.2
0.2
0.2
0.2
0.2
0.2
0.2
0.2
0.2
0.2
0.2
0.2
0.2
0.2
0.2
0.423888
0.420574
0.416823
0.412412
0.406962
0.399805
0.389707
0.373775
0.342658
0.26414
0.201831
0.200027
0.2
0.2
0.2
0.2
0.2
0.2
0.2
0.2
0.2
0.2
0.2
0.2
0.2
0.2
0.2
0.2
0.2
0.2
0.2
0.2
0.2
0.2
0.2
0.2
0.2
0.2
0.2
0.2
0.416409
0.413212
0.409679
0.405577
0.400524
0.393875
0.384359
0.368908
0.337396
0.26016
0.20176
0.200026
0.2
0.2
0.2
0.2
0.2
0.2
0.2
0.2
0.2
0.2
0.2