/*--------------------------------*- C++ -*----------------------------------*\
| =========                 |                                                 |
| \\      /  F ield         | OpenFOAM: The Open Source CFD Toolbox           |
|  \\    /   O peration     | Version:  2.1.0                                 |
|   \\  /    A nd           | Web:      www.OpenFOAM.org                      |
|    \\/     M anipulation  |                                                 |
\*---------------------------------------------------------------------------*/
FoamFile
{
    version     2.0;
    format      ascii;
    class       volScalarField;
    location    "4015";
    object      kr_w;
}
// * * * * * * * * * * * * * * * * * * * * * * * * * * * * * * * * * * * * * //

dimensions      [0 0 0 0 0 0 0];

internalField   nonuniform List<scalar> 
8000
(
0.202356
0.180574
0.15724
0.134877
0.114443
0.0961258
0.0797782
0.0651494
0.0520088
0.0401037
0.0292036
0.0192966
0.0108771
0.00488567
0.00167969
0.00045052
0.000101762
2.05809e-05
3.82936e-06
6.63112e-07
1.07498e-07
1.63688e-08
2.34537e-09
3.16364e-10
4.01413e-11
4.78065e-12
5.32557e-13
5.52986e-14
5.37873e-15
5.01676e-16
2.54013e-17
0
0
0
0
0
0
0
0
0
0.180574
0.162495
0.142589
0.123004
0.104682
0.0879072
0.0726558
0.0588041
0.0462147
0.0347
0.0241739
0.0148917
0.00761857
0.0030701
0.000956642
0.000240234
5.22654e-05
1.02933e-05
1.87107e-06
3.16945e-07
5.03091e-08
7.50885e-09
1.05592e-09
1.40001e-10
1.74926e-11
2.05587e-12
2.26621e-13
2.33946e-14
2.28612e-15
2.00035e-16
0
0
0
0
0
0
0
0
0
0
0.15724
0.142589
0.126056
0.109339
0.0932819
0.07822
0.0642393
0.0513446
0.0394559
0.0284929
0.0185928
0.010359
0.00465573
0.00163307
0.000451838
0.000105146
2.17956e-05
4.13629e-06
7.28075e-07
1.19774e-07
1.85083e-08
2.69588e-09
3.70975e-10
4.82834e-11
5.94363e-12
6.91097e-13
7.57848e-14
7.85853e-15
7.93791e-16
7.62039e-17
0
0
0
0
0
0
0
0
0
0
0.134877
0.123004
0.10934
0.0951622
0.0811815
0.0677464
0.0550335
0.0431051
0.0319475
0.0216708
0.012779
0.00618338
0.00236104
0.000706847
0.000174083
3.76416e-05
7.40312e-06
1.34561e-06
2.28076e-07
3.6273e-08
5.43819e-09
7.7133e-10
1.03775e-10
1.32669e-11
1.61296e-12
1.86484e-13
2.05338e-14
2.18451e-15
2.25437e-16
0
0
0
0
0
0
0
0
0
0
0
0.114443
0.104682
0.0932819
0.0811814
0.0689582
0.056962
0.0453944
0.0343377
0.02393
0.0146434
0.00742558
0.00299295
0.000946577
0.000243187
5.42496e-05
1.09584e-05
2.04172e-06
3.5429e-07
5.76429e-08
8.84026e-09
1.28364e-09
1.77139e-10
2.3306e-11
2.93121e-12
3.53177e-13
4.08802e-14
4.62621e-15
5.20727e-16
6.03281e-17
0
0
0
0
0
0
0
0
0
0
0
0.0961258
0.0879072
0.07822
0.0677464
0.056962
0.0461742
0.0355543
0.0252883
0.0158545
0.00825683
0.00341873
0.00111124
0.000292058
6.62997e-05
1.3608e-05
2.57624e-06
4.54328e-07
7.51318e-08
1.17135e-08
1.7299e-09
2.43056e-10
3.26222e-11
4.19897e-12
5.20381e-13
6.24174e-14
7.31875e-15
8.6682e-16
9.84301e-17
0
0
0
0
0
0
0
0
0
0
0
0
0.0797782
0.0726558
0.0642393
0.0550335
0.0453944
0.0355543
0.0257387
0.0164325
0.00868668
0.00361886
0.00117419
0.000307531
6.96719e-05
1.43146e-05
2.72129e-06
4.8312e-07
8.05699e-08
1.26826e-08
1.89265e-09
2.6891e-10
3.65313e-11
4.7662e-12
6.00147e-13
7.33971e-14
8.83966e-15
1.09543e-15
1.36532e-16
0
0
0
0
0
0
0
0
0
0
0
0
0
0.0651494
0.0588042
0.0513447
0.0431051
0.0343377
0.0252883
0.0164325
0.00881105
0.00367139
0.00116404
0.000292699
6.4026e-05
1.2836e-05
2.40363e-06
4.23393e-07
7.04221e-08
1.10949e-08
1.66092e-09
2.37057e-10
3.23763e-11
4.24868e-12
5.38362e-13
6.63165e-14
8.09032e-15
1.01288e-15
1.27007e-16
0
0
0
0
0
0
0
0
0
0
0
0
0
0
0.0520088
0.0462148
0.0394559
0.0319475
0.02393
0.0158545
0.00868668
0.0036714
0.00114821
0.000271177
5.30315e-05
9.81057e-06
1.74314e-06
2.96964e-07
4.83878e-08
7.53249e-09
1.12047e-09
1.59468e-10
2.17609e-11
2.85546e-12
3.61765e-13
4.45507e-14
5.41048e-15
6.79485e-16
7.93791e-17
0
0
0
0
0
0
0
0
0
0
0
0
0
0
0
0.0401037
0.0347
0.0284929
0.0216708
0.0146434
0.00825683
0.00361886
0.00116404
0.000271177
4.70124e-05
6.19083e-06
9.487e-07
1.48549e-07
2.29782e-08
3.46273e-09
5.04953e-10
7.10335e-11
9.63055e-12
1.25919e-12
1.59142e-13
1.96098e-14
2.4163e-15
3.07991e-16
1.9051e-17
0
0
0
0
0
0
0
0
0
0
0
0
0
0
0
0
0.0292036
0.024174
0.0185928
0.012779
0.00742559
0.00341873
0.00117419
0.000292699
5.30315e-05
6.19083e-06
1.87337e-08
1.83002e-09
3.0076e-10
4.67039e-11
6.92502e-12
9.85269e-13
1.34957e-13
1.7892e-14
2.31787e-15
2.79414e-16
6.35033e-18
0
0
0
0
0
0
0
0
0
0
0
0
0
0
0
0
0
0
0
0.0192966
0.0148917
0.010359
0.00618338
0.00299295
0.00111124
0.000307531
6.40261e-05
9.81057e-06
9.487e-07
1.83002e-09
6.07655e-12
5.41724e-13
8.51007e-14
1.26594e-14
1.78444e-15
2.38137e-16
0
0
0
0
0
0
0
0
0
0
0
0
0
0
0
0
0
0
0
0
0
0
0
0.0108771
0.00761858
0.00465574
0.00236104
0.000946578
0.000292058
6.96719e-05
1.2836e-05
1.74314e-06
1.48549e-07
3.0076e-10
5.41724e-13
1.84477e-15
1.46058e-16
0
0
0
0
0
0
0
0
0
0
0
0
0
0
0
0
0
0
0
0
0
0
0
0
0
0
0.00488568
0.0030701
0.00163307
0.000706848
0.000243187
6.62998e-05
1.43146e-05
2.40363e-06
2.96964e-07
2.29782e-08
4.67039e-11
8.51007e-14
1.46058e-16
0
0
0
0
0
0
0
0
0
0
0
0
0
0
0
0
0
0
0
0
0
0
0
0
0
0
0
0.00167969
0.000956643
0.000451838
0.000174083
5.42496e-05
1.3608e-05
2.72129e-06
4.23393e-07
4.83878e-08
3.46273e-09
6.92502e-12
1.26594e-14
0
0
0
0
0
0
0
0
0
0
0
0
0
0
0
0
0
0
0
0
0
0
0
0
0
0
0
0
0.000450521
0.000240234
0.000105146
3.76417e-05
1.09584e-05
2.57624e-06
4.83121e-07
7.04222e-08
7.53249e-09
5.04953e-10
9.85269e-13
1.78444e-15
0
0
0
0
0
0
0
0
0
0
0
0
0
0
0
0
0
0
0
0
0
0
0
0
0
0
0
0
0.000101762
5.22654e-05
2.17956e-05
7.40313e-06
2.04172e-06
4.54329e-07
8.05699e-08
1.10949e-08
1.12047e-09
7.10335e-11
1.34957e-13
2.38137e-16
0
0
0
0
0
0
0
0
0
0
0
0
0
0
0
0
0
0
0
0
0
0
0
0
0
0
0
0
2.05809e-05
1.02933e-05
4.13629e-06
1.34561e-06
3.54291e-07
7.51318e-08
1.26826e-08
1.66092e-09
1.59468e-10
9.63055e-12
1.7892e-14
0
0
0
0
0
0
0
0
0
0
0
0
0
0
0
0
0
0
0
0
0
0
0
0
0
0
0
0
0
3.82937e-06
1.87107e-06
7.28076e-07
2.28076e-07
5.7643e-08
1.17135e-08
1.89265e-09
2.37057e-10
2.17609e-11
1.25919e-12
2.31787e-15
0
0
0
0
0
0
0
0
0
0
0
0
0
0
0
0
0
0
0
0
0
0
0
0
0
0
0
0
0
6.63113e-07
3.16945e-07
1.19774e-07
3.62731e-08
8.84026e-09
1.7299e-09
2.6891e-10
3.23763e-11
2.85546e-12
1.59142e-13
2.79414e-16
0
0
0
0
0
0
0
0
0
0
0
0
0
0
0
0
0
0
0
0
0
0
0
0
0
0
0
0
0
1.07498e-07
5.03091e-08
1.85084e-08
5.4382e-09
1.28364e-09
2.43056e-10
3.65313e-11
4.24868e-12
3.61765e-13
1.96098e-14
6.35033e-18
0
0
0
0
0
0
0
0
0
0
0
0
0
0
0
0
0
0
0
0
0
0
0
0
0
0
0
0
0
1.63688e-08
7.50886e-09
2.69588e-09
7.71331e-10
1.77139e-10
3.26222e-11
4.7662e-12
5.38362e-13
4.45507e-14
2.4163e-15
0
0
0
0
0
0
0
0
0
0
0
0
0
0
0
0
0
0
0
0
0
0
0
0
0
0
0
0
0
0
2.34537e-09
1.05592e-09
3.70975e-10
1.03775e-10
2.3306e-11
4.19897e-12
6.00147e-13
6.63165e-14
5.41048e-15
3.07991e-16
0
0
0
0
0
0
0
0
0
0
0
0
0
0
0
0
0
0
0
0
0
0
0
0
0
0
0
0
0
0
3.16364e-10
1.40001e-10
4.82834e-11
1.32669e-11
2.93123e-12
5.20381e-13
7.33971e-14
8.09032e-15
6.79485e-16
1.9051e-17
0
0
0
0
0
0
0
0
0
0
0
0
0
0
0
0
0
0
0
0
0
0
0
0
0
0
0
0
0
0
4.01413e-11
1.74926e-11
5.94363e-12
1.61296e-12
3.53177e-13
6.24174e-14
8.83966e-15
1.01288e-15
7.93791e-17
0
0
0
0
0
0
0
0
0
0
0
0
0
0
0
0
0
0
0
0
0
0
0
0
0
0
0
0
0
0
0
4.78065e-12
2.05587e-12
6.91097e-13
1.86484e-13
4.08802e-14
7.31875e-15
1.09543e-15
1.27007e-16
0
0
0
0
0
0
0
0
0
0
0
0
0
0
0
0
0
0
0
0
0
0
0
0
0
0
0
0
0
0
0
0
5.32557e-13
2.26621e-13
7.57848e-14
2.05338e-14
4.62621e-15
8.6682e-16
1.36532e-16
0
0
0
0
0
0
0
0
0
0
0
0
0
0
0
0
0
0
0
0
0
0
0
0
0
0
0
0
0
0
0
0
0
5.52986e-14
2.33946e-14
7.85853e-15
2.18451e-15
5.20727e-16
9.84301e-17
0
0
0
0
0
0
0
0
0
0
0
0
0
0
0
0
0
0
0
0
0
0
0
0
0
0
0
0
0
0
0
0
0
0
5.37873e-15
2.28612e-15
7.93791e-16
2.25437e-16
6.03281e-17
0
0
0
0
0
0
0
0
0
0
0
0
0
0
0
0
0
0
0
0
0
0
0
0
0
0
0
0
0
0
0
0
0
0
0
5.01676e-16
2.00035e-16
7.62039e-17
0
0
0
0
0
0
0
0
0
0
0
0
0
0
0
0
0
0
0
0
0
0
0
0
0
0
0
0
0
0
0
0
0
0
0
0
0
2.54013e-17
0
0
0
0
0
0
0
0
0
0
0
0
0
0
0
0
0
0
0
0
0
0
0
0
0
0
0
0
0
0
0
0
0
0
0
0
0
0
0
0
0
0
0
0
0
0
0
0
0
0
0
0
0
0
0
0
0
0
0
0
0
0
0
0
0
0
0
0
0
0
0
0
0
0
0
0
0
0
0
0
0
0
0
0
0
0
0
0
0
0
0
0
0
0
0
0
0
0
0
0
0
0
0
0
0
0
0
0
0
0
0
0
0
0
0
0
0
0
0
0
0
0
0
0
0
0
0
0
0
0
0
0
0
0
0
0
0
0
0
0
0
0
0
0
0
0
0
0
0
0
0
0
0
0
0
0
0
0
0
0
0
0
0
0
0
0
0
0
0
0
0
0
0
0
0
0
0
0
0
0
0
0
0
0
0
0
0
0
0
0
0
0
0
0
0
0
0
0
0
0
0
0
0
0
0
0
0
0
0
0
0
0
0
0
0
0
0
0
0
0
0
0
0
0
0
0
0
0
0
0
0
0
0
0
0
0
0
0
0
0
0
0
0
0
0
0
0
0
0
0
0
0
0
0
0
0
0
0
0
0
0
0
0
0
0
0
0
0
0
0
0
0
0
0
0
0
0
0
0
0
0
0
0
0
0
0
0
0
0
0
0
0
0
0
0
0
0
0
0
0
0
0
0
0
0
0
0
0
0
0
0
0
0
0
0
0
0
0
0
0
0
0
0
0
0
0
0
0
0
0
0
0
0
0
0
0
0
0
0
0
0
0
0
0
0
0
0
0
0
0
0
0
0
0
0
0
0
0
0
0
0
0
0
0
0
0
0
0
0
0
0
0
0
0
0
0
0
0
0
0
0
0
0
0
0
0
0
0
0
0
0
0
0
0
0
0
0
0
0
0.311888
0.275171
0.237934
0.203937
0.174239
0.148798
0.127082
0.108413
0.0921058
0.0775089
0.0640098
0.0510297
0.0379792
0.0246081
0.0122684
0.00423325
0.00106611
0.000223939
4.24795e-05
7.48024e-06
1.23383e-06
1.91336e-07
2.79411e-08
3.84342e-09
4.975e-10
6.04591e-11
6.87177e-12
7.26592e-13
7.10729e-14
6.42971e-15
5.39778e-16
2.54013e-17
0
0
0
0
0
0
0
0
0.275172
0.246134
0.215513
0.186588
0.160637
0.137901
0.118112
0.100789
0.0853886
0.0713552
0.058144
0.0452122
0.0320618
0.0189387
0.00817855
0.00246463
0.00057508
0.000116449
2.15691e-05
3.72031e-06
6.01716e-07
9.15757e-08
1.3138e-08
1.7778e-09
2.26749e-10
2.72043e-11
3.05927e-12
3.20869e-13
3.12341e-14
2.81955e-15
2.47663e-16
0
0
0
0
0
0
0
0
0
0.237934
0.215513
0.191031
0.167162
0.145141
0.125346
0.107696
0.0918852
0.0774992
0.0640719
0.051124
0.0381395
0.0249003
0.0126525
0.0045036
0.00117213
0.000253006
4.90507e-05
8.79637e-06
1.47489e-06
2.32447e-07
3.45488e-08
4.85275e-09
6.44783e-10
8.10288e-11
9.61639e-12
1.07452e-12
1.12531e-13
1.10337e-14
1.01605e-15
8.57294e-17
0
0
0
0
0
0
0
0
0
0.203937
0.186588
0.167162
0.147692
0.12922
0.112157
0.0965276
0.0821365
0.0686579
0.0556986
0.0428088
0.0296235
0.0167243
0.00679939
0.00195873
0.000448531
9.04198e-05
1.67497e-05
2.89357e-06
4.69353e-07
7.18034e-08
1.03949e-08
1.42757e-09
1.86284e-10
2.31109e-11
2.72422e-12
3.04485e-13
3.22184e-14
3.25454e-15
3.20692e-16
6.35033e-18
0
0
0
0
0
0
0
0
0
0.17424
0.160637
0.145141
0.12922
0.113701
0.0989497
0.085023
0.0717733
0.058923
0.046114
0.0329791
0.0198027
0.00880837
0.00274932
0.000661384
0.000137537
2.613e-05
4.62111e-06
7.66769e-07
1.19985e-07
1.77804e-08
2.50419e-09
3.36221e-10
4.31409e-11
5.29937e-12
6.2371e-13
7.03489e-14
7.65214e-15
8.12842e-16
7.93791e-17
0
0
0
0
0
0
0
0
0
0
0.148798
0.137901
0.125346
0.112157
0.0989497
0.0860031
0.0733451
0.060822
0.0481632
0.0350478
0.0216882
0.0101111
0.00331013
0.000822392
0.000174616
3.37523e-05
6.06898e-06
1.02372e-06
1.6286e-07
2.45454e-08
3.51932e-09
4.81939e-10
6.3273e-11
7.99319e-12
9.74994e-13
1.15249e-13
1.32881e-14
1.5209e-15
1.71459e-16
0
0
0
0
0
0
0
0
0
0
0
0.127082
0.118112
0.107696
0.0965276
0.085023
0.0733451
0.0614459
0.0491201
0.0360721
0.0225181
0.0105825
0.00349208
0.00087335
0.000186503
3.62898e-05
6.57815e-06
1.11991e-06
1.79958e-07
2.74115e-08
3.97445e-09
5.50843e-10
7.32944e-11
9.4064e-12
1.17033e-12
1.42016e-13
1.69744e-14
2.05116e-15
2.60363e-16
1.58758e-17
0
0
0
0
0
0
0
0
0
0
0
0.108413
0.100789
0.0918852
0.0821365
0.0717733
0.060822
0.0491201
0.0363631
0.0227176
0.0104799
0.00332647
0.000805552
0.000168602
3.24372e-05
5.84873e-06
9.94652e-07
1.60114e-07
2.4477e-08
3.56575e-09
4.96846e-10
6.64889e-11
8.58523e-12
1.07555e-12
1.31699e-13
1.59552e-14
1.9559e-15
2.47663e-16
1.58758e-17
0
0
0
0
0
0
0
0
0
0
0
0
0.0921058
0.0853886
0.0774992
0.0686579
0.058923
0.0481632
0.0360721
0.0227176
0.0103442
0.00308102
0.000666789
0.000129252
2.36975e-05
4.14606e-06
6.92208e-07
1.10242e-07
1.6758e-08
2.43519e-09
3.39061e-10
4.53685e-11
5.8558e-12
7.32555e-13
8.94475e-14
1.07733e-14
1.32722e-15
1.71459e-16
0
0
0
0
0
0
0
0
0
0
0
0
0
0
0.077509
0.0713552
0.0640719
0.0556986
0.0461141
0.0350478
0.0225181
0.0104799
0.00308102
0.000590702
8.17096e-05
1.29612e-05
2.09022e-06
3.31993e-07
5.12576e-08
7.6453e-09
1.09866e-09
1.52017e-10
2.02677e-11
2.60871e-12
3.2521e-13
3.95276e-14
4.74687e-15
5.81055e-16
6.98536e-17
0
0
0
0
0
0
0
0
0
0
0
0
0
0
0
0.0640098
0.058144
0.051124
0.0428088
0.0329791
0.0216882
0.0105825
0.00332647
0.000666789
8.17095e-05
2.59393e-07
2.60021e-08
4.37778e-09
6.95488e-10
1.05375e-10
1.53034e-11
2.13592e-12
2.87159e-13
3.73717e-14
4.75639e-15
6.00106e-16
6.66784e-17
0
0
0
0
0
0
0
0
0
0
0
0
0
0
0
0
0
0
0.0510297
0.0452122
0.0381395
0.0296235
0.0198027
0.0101111
0.00349208
0.000805552
0.000129252
1.29612e-05
2.60021e-08
8.92064e-11
8.11802e-12
1.29999e-12
1.96057e-13
2.81351e-14
3.9118e-15
5.23902e-16
6.03281e-17
0
0
0
0
0
0
0
0
0
0
0
0
0
0
0
0
0
0
0
0
0
0.0379792
0.0320618
0.0249003
0.0167243
0.00880837
0.00331013
0.00087335
0.000168602
2.36975e-05
2.09022e-06
4.37778e-09
8.11802e-12
2.71572e-14
2.29882e-15
3.61969e-16
2.54013e-17
0
0
0
0
0
0
0
0
0
0
0
0
0
0
0
0
0
0
0
0
0
0
0
0
0.0246082
0.0189387
0.0126526
0.0067994
0.00274932
0.000822393
0.000186503
3.24373e-05
4.14606e-06
3.31993e-07
6.95488e-10
1.29999e-12
2.29882e-15
0
0
0
0
0
0
0
0
0
0
0
0
0
0
0
0
0
0
0
0
0
0
0
0
0
0
0
0.0122684
0.00817856
0.0045036
0.00195873
0.000661385
0.000174616
3.62898e-05
5.84874e-06
6.92208e-07
5.12576e-08
1.05375e-10
1.96057e-13
3.61969e-16
0
0
0
0
0
0
0
0
0
0
0
0
0
0
0
0
0
0
0
0
0
0
0
0
0
0
0
0.00423325
0.00246464
0.00117213
0.000448532
0.000137538
3.37523e-05
6.57815e-06
9.94652e-07
1.10242e-07
7.6453e-09
1.53034e-11
2.81351e-14
2.54013e-17
0
0
0
0
0
0
0
0
0
0
0
0
0
0
0
0
0
0
0
0
0
0
0
0
0
0
0
0.00106611
0.00057508
0.000253006
9.04199e-05
2.613e-05
6.06898e-06
1.11991e-06
1.60114e-07
1.6758e-08
1.09866e-09
2.13592e-12
3.9118e-15
0
0
0
0
0
0
0
0
0
0
0
0
0
0
0
0
0
0
0
0
0
0
0
0
0
0
0
0
0.00022394
0.000116449
4.90507e-05
1.67497e-05
4.62111e-06
1.02372e-06
1.79958e-07
2.4477e-08
2.43519e-09
1.52017e-10
2.87159e-13
5.23902e-16
0
0
0
0
0
0
0
0
0
0
0
0
0
0
0
0
0
0
0
0
0
0
0
0
0
0
0
0
4.24796e-05
2.15692e-05
8.79638e-06
2.89357e-06
7.6677e-07
1.6286e-07
2.74115e-08
3.56576e-09
3.39061e-10
2.02677e-11
3.73717e-14
6.03281e-17
0
0
0
0
0
0
0
0
0
0
0
0
0
0
0
0
0
0
0
0
0
0
0
0
0
0
0
0
7.48024e-06
3.72031e-06
1.47489e-06
4.69353e-07
1.19985e-07
2.45454e-08
3.97445e-09
4.96847e-10
4.53686e-11
2.60871e-12
4.75639e-15
0
0
0
0
0
0
0
0
0
0
0
0
0
0
0
0
0
0
0
0
0
0
0
0
0
0
0
0
0
1.23383e-06
6.01717e-07
2.32447e-07
7.18034e-08
1.77805e-08
3.51932e-09
5.50843e-10
6.64889e-11
5.85581e-12
3.2521e-13
6.00106e-16
0
0
0
0
0
0
0
0
0
0
0
0
0
0
0
0
0
0
0
0
0
0
0
0
0
0
0
0
0
1.91336e-07
9.15758e-08
3.45488e-08
1.03949e-08
2.5042e-09
4.81939e-10
7.32945e-11
8.58523e-12
7.32558e-13
3.95276e-14
6.66784e-17
0
0
0
0
0
0
0
0
0
0
0
0
0
0
0
0
0
0
0
0
0
0
0
0
0
0
0
0
0
2.79412e-08
1.3138e-08
4.85275e-09
1.42757e-09
3.36221e-10
6.3273e-11
9.40642e-12
1.07555e-12
8.94475e-14
4.74687e-15
0
0
0
0
0
0
0
0
0
0
0
0
0
0
0
0
0
0
0
0
0
0
0
0
0
0
0
0
0
0
3.84343e-09
1.7778e-09
6.44784e-10
1.86284e-10
4.31409e-11
7.99319e-12
1.17033e-12
1.31699e-13
1.07733e-14
5.81055e-16
0
0
0
0
0
0
0
0
0
0
0
0
0
0
0
0
0
0
0
0
0
0
0
0
0
0
0
0
0
0
4.975e-10
2.26749e-10
8.10288e-11
2.31109e-11
5.29937e-12
9.74994e-13
1.42016e-13
1.59552e-14
1.32722e-15
6.98536e-17
0
0
0
0
0
0
0
0
0
0
0
0
0
0
0
0
0
0
0
0
0
0
0
0
0
0
0
0
0
0
6.04591e-11
2.72043e-11
9.61639e-12
2.72423e-12
6.2371e-13
1.15249e-13
1.69744e-14
1.9559e-15
1.71459e-16
0
0
0
0
0
0
0
0
0
0
0
0
0
0
0
0
0
0
0
0
0
0
0
0
0
0
0
0
0
0
0
6.87179e-12
3.05927e-12
1.07452e-12
3.04485e-13
7.03489e-14
1.32881e-14
2.05116e-15
2.47663e-16
0
0
0
0
0
0
0
0
0
0
0
0
0
0
0
0
0
0
0
0
0
0
0
0
0
0
0
0
0
0
0
0
7.26592e-13
3.20869e-13
1.12531e-13
3.22184e-14
7.65214e-15
1.5209e-15
2.60363e-16
1.58758e-17
0
0
0
0
0
0
0
0
0
0
0
0
0
0
0
0
0
0
0
0
0
0
0
0
0
0
0
0
0
0
0
0
7.10729e-14
3.12341e-14
1.10337e-14
3.25454e-15
8.12842e-16
1.71459e-16
1.58758e-17
0
0
0
0
0
0
0
0
0
0
0
0
0
0
0
0
0
0
0
0
0
0
0
0
0
0
0
0
0
0
0
0
0
6.42971e-15
2.81955e-15
1.01605e-15
3.20692e-16
7.93791e-17
0
0
0
0
0
0
0
0
0
0
0
0
0
0
0
0
0
0
0
0
0
0
0
0
0
0
0
0
0
0
0
0
0
0
0
5.39778e-16
2.47663e-16
8.57294e-17
6.35033e-18
0
0
0
0
0
0
0
0
0
0
0
0
0
0
0
0
0
0
0
0
0
0
0
0
0
0
0
0
0
0
0
0
0
0
0
0
2.54013e-17
0
0
0
0
0
0
0
0
0
0
0
0
0
0
0
0
0
0
0
0
0
0
0
0
0
0
0
0
0
0
0
0
0
0
0
0
0
0
0
0
0
0
0
0
0
0
0
0
0
0
0
0
0
0
0
0
0
0
0
0
0
0
0
0
0
0
0
0
0
0
0
0
0
0
0
0
0
0
0
0
0
0
0
0
0
0
0
0
0
0
0
0
0
0
0
0
0
0
0
0
0
0
0
0
0
0
0
0
0
0
0
0
0
0
0
0
0
0
0
0
0
0
0
0
0
0
0
0
0
0
0
0
0
0
0
0
0
0
0
0
0
0
0
0
0
0
0
0
0
0
0
0
0
0
0
0
0
0
0
0
0
0
0
0
0
0
0
0
0
0
0
0
0
0
0
0
0
0
0
0
0
0
0
0
0
0
0
0
0
0
0
0
0
0
0
0
0
0
0
0
0
0
0
0
0
0
0
0
0
0
0
0
0
0
0
0
0
0
0
0
0
0
0
0
0
0
0
0
0
0
0
0
0
0
0
0
0
0
0
0
0
0
0
0
0
0
0
0
0
0
0
0
0
0
0
0
0
0
0
0
0
0
0
0
0
0
0
0
0
0
0
0
0
0
0
0
0
0
0
0
0
0
0
0
0
0
0
0
0
0
0
0
0
0
0
0
0
0
0
0
0
0
0
0
0
0
0
0
0
0
0
0
0
0
0
0
0
0
0
0
0
0
0
0
0
0
0
0
0
0
0
0
0
0
0
0
0
0
0
0
0
0
0
0
0
0
0
0
0
0
0
0
0
0
0
0
0
0
0
0.414989
0.359992
0.306207
0.259195
0.219703
0.186807
0.159398
0.136363
0.116694
0.0995233
0.0840934
0.0697171
0.0557634
0.0416432
0.0270345
0.0133072
0.00439297
0.00104584
0.000209004
3.79788e-05
6.43576e-06
1.0245e-06
1.53564e-07
2.16814e-08
2.88048e-09
3.59238e-10
4.18943e-11
4.54327e-12
4.54874e-13
4.17598e-14
3.50538e-15
2.66714e-16
0
0
0
0
0
0
0
0
0.359993
0.317562
0.274798
0.23595
0.202085
0.1731
0.148422
0.127296
0.108952
0.0926762
0.0778057
0.0637163
0.0498347
0.0356283
0.0211931
0.00902475
0.00259891
0.000575616
0.000111257
1.97821e-05
3.28926e-06
5.14323e-07
7.57977e-08
1.05345e-08
1.37975e-09
1.69943e-10
1.96128e-11
2.10941e-12
2.09958e-13
1.92542e-14
1.62251e-15
1.27007e-16
0
0
0
0
0
0
0
0
0.306207
0.274797
0.2418
0.210533
0.18231
0.157461
0.135767
0.116761
0.0998932
0.0845981
0.0703078
0.0564709
0.0425551
0.0282068
0.0144788
0.00504538
0.00125392
0.000258131
4.79625e-05
8.28298e-06
1.34258e-06
2.05129e-07
2.96092e-08
4.04166e-09
5.21591e-10
6.35409e-11
7.28337e-12
7.81535e-13
7.79725e-14
7.21397e-15
6.19157e-16
5.39778e-17
0
0
0
0
0
0
0
0
0.259195
0.23595
0.210533
0.185563
0.16232
0.141262
0.122368
0.105373
0.0898881
0.0754598
0.0616013
0.0478319
0.0336928
0.0194699
0.00794936
0.00221789
0.000485718
9.38319e-05
1.67305e-05
2.79374e-06
4.39608e-07
6.5427e-08
9.23317e-09
1.23745e-09
1.57587e-10
1.9055e-11
2.18234e-12
2.35677e-13
2.38931e-14
2.28612e-15
2.00035e-16
0
0
0
0
0
0
0
0
0
0.219703
0.202085
0.18231
0.16232
0.143168
0.125304
0.1088
0.0935027
0.0791176
0.0652668
0.0515453
0.0375295
0.0232036
0.0105626
0.00325099
0.000752789
0.000150267
2.74905e-05
4.70033e-06
7.56932e-07
1.15352e-07
1.66969e-08
2.30252e-09
3.03238e-10
3.82039e-11
4.60711e-12
5.31237e-13
5.84198e-14
6.15029e-15
6.31858e-16
6.03281e-17
0
0
0
0
0
0
0
0
0
0.186807
0.1731
0.157461
0.141262
0.125304
0.109967
0.0953329
0.0812833
0.0675595
0.0538449
0.0398062
0.0254006
0.0122537
0.00402066
0.000970475
0.000198586
3.70362e-05
6.44552e-06
1.05599e-06
1.63734e-07
2.41319e-08
3.39433e-09
4.5737e-10
5.92505e-11
7.40381e-12
8.94799e-13
1.04818e-13
1.19354e-14
1.35579e-15
1.46058e-16
0
0
0
0
0
0
0
0
0
0
0.159398
0.148422
0.135767
0.122368
0.1088
0.0953329
0.0819976
0.0686377
0.0549967
0.0408048
0.0261361
0.0127449
0.00426305
0.00104761
0.000217244
4.09863e-05
7.21357e-06
1.19516e-06
1.87417e-07
2.79429e-08
3.97839e-09
5.43295e-10
7.14945e-11
9.11171e-12
1.13089e-12
1.37567e-13
1.6549e-14
2.01623e-15
2.47663e-16
9.52549e-18
0
0
0
0
0
0
0
0
0
0
0.136363
0.127296
0.116761
0.105373
0.0935027
0.0812833
0.0686377
0.0553275
0.0410493
0.0259148
0.0121819
0.00393736
0.00095177
0.000196292
3.70108e-05
6.52711e-06
1.08543e-06
1.71013e-07
2.56324e-08
3.66988e-09
5.04059e-10
6.67327e-11
8.56251e-12
1.07191e-12
1.3208e-13
1.62505e-14
2.07021e-15
2.69889e-16
2.54013e-17
0
0
0
0
0
0
0
0
0
0
0
0.116694
0.108952
0.0998933
0.0898881
0.0791177
0.0675596
0.0549967
0.0410493
0.025661
0.0113667
0.00326281
0.000729801
0.000144226
2.65369e-05
4.6129e-06
7.60828e-07
1.19367e-07
1.786e-08
2.55592e-09
3.51027e-10
4.64489e-11
5.95021e-12
7.42452e-13
9.10288e-14
1.11543e-14
1.41612e-15
1.87335e-16
6.35033e-18
0
0
0
0
0
0
0
0
0
0
0
0
0.0995234
0.0926762
0.0845981
0.0754598
0.0652669
0.0538449
0.0408048
0.0259148
0.0113667
0.0028911
0.000461815
7.92714e-05
1.3511e-05
2.24276e-06
3.59479e-07
5.54178e-08
8.2058e-09
1.1673e-09
1.59735e-10
2.10732e-11
2.68873e-12
3.33284e-13
4.04579e-14
4.91833e-15
6.28682e-16
7.93791e-17
0
0
0
0
0
0
0
0
0
0
0
0
0
0
0.0840935
0.0778057
0.0703078
0.0616013
0.0515453
0.0398062
0.0261361
0.0121819
0.00326281
0.000461815
1.6092e-06
1.70048e-07
2.98574e-08
4.91659e-09
7.69017e-10
1.14974e-10
1.64855e-11
2.27326e-12
3.02364e-13
3.90482e-14
4.93738e-15
6.12807e-16
6.98536e-17
0
0
0
0
0
0
0
0
0
0
0
0
0
0
0
0
0
0.0697171
0.0637163
0.0564709
0.0478319
0.0375295
0.0254006
0.0127449
0.00393736
0.000729801
7.92714e-05
1.70048e-07
6.14908e-10
5.78916e-11
9.55512e-12
1.48132e-12
2.17492e-13
3.05991e-14
4.16899e-15
5.42953e-16
6.66784e-17
0
0
0
0
0
0
0
0
0
0
0
0
0
0
0
0
0
0
0
0
0.0557634
0.0498347
0.0425551
0.0336928
0.0232036
0.0122538
0.00426305
0.00095177
0.000144226
1.3511e-05
2.98574e-08
5.78916e-11
2.00623e-13
1.71776e-14
2.64491e-15
4.12771e-16
3.49268e-17
0
0
0
0
0
0
0
0
0
0
0
0
0
0
0
0
0
0
0
0
0
0
0
0.0416432
0.0356283
0.0282068
0.0194699
0.0105626
0.00402066
0.00104761
0.000196292
2.65369e-05
2.24276e-06
4.91659e-09
9.55512e-12
1.71776e-14
4.44523e-17
0
0
0
0
0
0
0
0
0
0
0
0
0
0
0
0
0
0
0
0
0
0
0
0
0
0
0.0270345
0.0211931
0.0144788
0.00794937
0.00325099
0.000970476
0.000217244
3.70108e-05
4.6129e-06
3.59479e-07
7.69017e-10
1.48132e-12
2.64491e-15
0
0
0
0
0
0
0
0
0
0
0
0
0
0
0
0
0
0
0
0
0
0
0
0
0
0
0
0.0133072
0.00902476
0.00504538
0.0022179
0.00075279
0.000198586
4.09863e-05
6.52711e-06
7.60829e-07
5.54178e-08
1.14974e-10
2.17492e-13
4.12771e-16
0
0
0
0
0
0
0
0
0
0
0
0
0
0
0
0
0
0
0
0
0
0
0
0
0
0
0
0.00439298
0.00259892
0.00125392
0.000485718
0.000150267
3.70362e-05
7.21357e-06
1.08543e-06
1.19367e-07
8.2058e-09
1.64855e-11
3.05991e-14
3.49268e-17
0
0
0
0
0
0
0
0
0
0
0
0
0
0
0
0
0
0
0
0
0
0
0
0
0
0
0
0.00104584
0.000575616
0.000258132
9.38319e-05
2.74905e-05
6.44553e-06
1.19516e-06
1.71013e-07
1.786e-08
1.1673e-09
2.27326e-12
4.16899e-15
0
0
0
0
0
0
0
0
0
0
0
0
0
0
0
0
0
0
0
0
0
0
0
0
0
0
0
0
0.000209004
0.000111257
4.79626e-05
1.67305e-05
4.70033e-06
1.05599e-06
1.87417e-07
2.56324e-08
2.55592e-09
1.59735e-10
3.02364e-13
5.42953e-16
0
0
0
0
0
0
0
0
0
0
0
0
0
0
0
0
0
0
0
0
0
0
0
0
0
0
0
0
3.79789e-05
1.97821e-05
8.28298e-06
2.79374e-06
7.56932e-07
1.63734e-07
2.79429e-08
3.66988e-09
3.51027e-10
2.10732e-11
3.90482e-14
6.66784e-17
0
0
0
0
0
0
0
0
0
0
0
0
0
0
0
0
0
0
0
0
0
0
0
0
0
0
0
0
6.43577e-06
3.28926e-06
1.34258e-06
4.39608e-07
1.15352e-07
2.41319e-08
3.97839e-09
5.04059e-10
4.64489e-11
2.68873e-12
4.93738e-15
0
0
0
0
0
0
0
0
0
0
0
0
0
0
0
0
0
0
0
0
0
0
0
0
0
0
0
0
0
1.0245e-06
5.14323e-07
2.05129e-07
6.54271e-08
1.66969e-08
3.39433e-09
5.43295e-10
6.67327e-11
5.95021e-12
3.33284e-13
6.12807e-16
0
0
0
0
0
0
0
0
0
0
0
0
0
0
0
0
0
0
0
0
0
0
0
0
0
0
0
0
0
1.53564e-07
7.57977e-08
2.96092e-08
9.23318e-09
2.30252e-09
4.5737e-10
7.14945e-11
8.56252e-12
7.42452e-13
4.04579e-14
6.98536e-17
0
0
0
0
0
0
0
0
0
0
0
0
0
0
0
0
0
0
0
0
0
0
0
0
0
0
0
0
0
2.16815e-08
1.05346e-08
4.04166e-09
1.23745e-09
3.03238e-10
5.92506e-11
9.11171e-12
1.07191e-12
9.10288e-14
4.91833e-15
0
0
0
0
0
0
0
0
0
0
0
0
0
0
0
0
0
0
0
0
0
0
0
0
0
0
0
0
0
0
2.88048e-09
1.37976e-09
5.21592e-10
1.57587e-10
3.82039e-11
7.40381e-12
1.13089e-12
1.3208e-13
1.11543e-14
6.28682e-16
0
0
0
0
0
0
0
0
0
0
0
0
0
0
0
0
0
0
0
0
0
0
0
0
0
0
0
0
0
0
3.59239e-10
1.69944e-10
6.35409e-11
1.9055e-11
4.60711e-12
8.94799e-13
1.37567e-13
1.62505e-14
1.41612e-15
7.93791e-17
0
0
0
0
0
0
0
0
0
0
0
0
0
0
0
0
0
0
0
0
0
0
0
0
0
0
0
0
0
0
4.18943e-11
1.96128e-11
7.28338e-12
2.18234e-12
5.31237e-13
1.04818e-13
1.6549e-14
2.07021e-15
1.87335e-16
0
0
0
0
0
0
0
0
0
0
0
0
0
0
0
0
0
0
0
0
0
0
0
0
0
0
0
0
0
0
0
4.54327e-12
2.10941e-12
7.81535e-13
2.35677e-13
5.84198e-14
1.19354e-14
2.01623e-15
2.69889e-16
6.35033e-18
0
0
0
0
0
0
0
0
0
0
0
0
0
0
0
0
0
0
0
0
0
0
0
0
0
0
0
0
0
0
0
4.54874e-13
2.09958e-13
7.79725e-14
2.38931e-14
6.15029e-15
1.35579e-15
2.47663e-16
2.54013e-17
0
0
0
0
0
0
0
0
0
0
0
0
0
0
0
0
0
0
0
0
0
0
0
0
0
0
0
0
0
0
0
0
4.17598e-14
1.92542e-14
7.21397e-15
2.28612e-15
6.31858e-16
1.46058e-16
9.52549e-18
0
0
0
0
0
0
0
0
0
0
0
0
0
0
0
0
0
0
0
0
0
0
0
0
0
0
0
0
0
0
0
0
0
3.50538e-15
1.62251e-15
6.19157e-16
2.00035e-16
6.03281e-17
0
0
0
0
0
0
0
0
0
0
0
0
0
0
0
0
0
0
0
0
0
0
0
0
0
0
0
0
0
0
0
0
0
0
0
2.66714e-16
1.27007e-16
5.39778e-17
0
0
0
0
0
0
0
0
0
0
0
0
0
0
0
0
0
0
0
0
0
0
0
0
0
0
0
0
0
0
0
0
0
0
0
0
0
0
0
0
0
0
0
0
0
0
0
0
0
0
0
0
0
0
0
0
0
0
0
0
0
0
0
0
0
0
0
0
0
0
0
0
0
0
0
0
0
0
0
0
0
0
0
0
0
0
0
0
0
0
0
0
0
0
0
0
0
0
0
0
0
0
0
0
0
0
0
0
0
0
0
0
0
0
0
0
0
0
0
0
0
0
0
0
0
0
0
0
0
0
0
0
0
0
0
0
0
0
0
0
0
0
0
0
0
0
0
0
0
0
0
0
0
0
0
0
0
0
0
0
0
0
0
0
0
0
0
0
0
0
0
0
0
0
0
0
0
0
0
0
0
0
0
0
0
0
0
0
0
0
0
0
0
0
0
0
0
0
0
0
0
0
0
0
0
0
0
0
0
0
0
0
0
0
0
0
0
0
0
0
0
0
0
0
0
0
0
0
0
0
0
0
0
0
0
0
0
0
0
0
0
0
0
0
0
0
0
0
0
0
0
0
0
0
0
0
0
0
0
0
0
0
0
0
0
0
0
0
0
0
0
0
0
0
0
0
0
0
0
0
0
0
0
0
0
0
0
0
0
0
0
0
0
0
0
0
0
0
0
0
0
0
0
0
0
0
0
0
0
0
0
0
0
0
0
0
0
0
0
0
0
0
0
0
0
0
0
0
0
0
0
0
0
0
0
0
0
0
0
0
0
0
0
0
0
0
0
0
0
0
0
0
0
0
0
0
0
0.511742
0.443423
0.371267
0.309104
0.258732
0.218217
0.185241
0.158034
0.135202
0.115628
0.0984018
0.0827524
0.0679823
0.053455
0.0385908
0.0233416
0.0101119
0.00290594
0.00063056
0.000118939
2.06895e-05
3.3738e-06
5.17884e-07
7.48805e-08
1.01879e-08
1.30115e-09
1.55374e-10
1.72506e-11
1.76755e-12
1.65648e-13
1.41104e-14
1.09543e-15
7.62039e-17
0
0
0
0
0
0
0
0.443424
0.385969
0.329132
0.27906
0.236893
0.201717
0.172326
0.147588
0.126472
0.108088
0.0916649
0.0765132
0.0619915
0.047515
0.0325951
0.0178051
0.00664181
0.00170188
0.000349963
6.43147e-05
1.09782e-05
1.75987e-06
2.65832e-07
3.78653e-08
5.08233e-09
6.41417e-10
7.58344e-11
8.35316e-12
8.50855e-13
7.94521e-14
6.77897e-15
5.39778e-16
1.9051e-17
0
0
0
0
0
0
0
0.371269
0.329133
0.286389
0.247242
0.212828
0.183081
0.157527
0.135499
0.116288
0.099222
0.0836679
0.0690193
0.0546994
0.0401596
0.0252006
0.0116546
0.00358464
0.000814728
0.000158335
2.81702e-05
4.68794e-06
7.34795e-07
1.08781e-07
1.52262e-08
2.01451e-09
2.51521e-10
2.95381e-11
3.24556e-12
3.31173e-13
3.11484e-14
2.71794e-15
2.19086e-16
0
0
0
0
0
0
0
0
0.309103
0.27906
0.247241
0.216759
0.188879
0.163999
0.142011
0.122551
0.105154
0.0893163
0.0745169
0.0602245
0.0459206
0.0311701
0.0166863
0.00606785
0.00153289
0.000314899
5.81256e-05
9.98243e-06
1.61293e-06
2.46364e-07
3.56696e-08
4.90293e-09
6.40119e-10
7.9316e-11
9.30348e-12
1.02803e-12
1.06222e-13
1.02018e-14
9.36673e-16
7.62039e-17
0
0
0
0
0
0
0
0
0.258731
0.236892
0.212828
0.188879
0.166248
0.14543
0.126485
0.10923
0.093357
0.0784789
0.0641572
0.0499408
0.0353741
0.0206536
0.00851401
0.00236874
0.000512356
9.75992e-05
1.71963e-05
2.84626e-06
4.45431e-07
6.61774e-08
9.36261e-09
1.26439e-09
1.63253e-10
2.01627e-11
2.37906e-12
2.67212e-13
2.84399e-14
2.88305e-15
2.8894e-16
0
0
0
0
0
0
0
0
0
0.218217
0.201717
0.183081
0.163999
0.14543
0.127826
0.111303
0.0957632
0.0809767
0.0666207
0.0523481
0.0377968
0.0230211
0.010209
0.00304536
0.000686635
0.000134138
2.41098e-05
4.06442e-06
6.47621e-07
9.80167e-08
1.41489e-08
1.95537e-09
2.59632e-10
3.3228e-11
4.10923e-12
4.91623e-13
5.68704e-14
6.3789e-15
7.11237e-16
7.62039e-17
0
0
0
0
0
0
0
0
0
0.185241
0.172326
0.157527
0.142011
0.126485
0.111303
0.0965586
0.0821571
0.0678697
0.0534275
0.0386129
0.0236636
0.0107046
0.00328839
0.000759324
0.000150874
2.75008e-05
4.69609e-06
7.57558e-07
1.16064e-07
1.69663e-08
2.37698e-09
3.20655e-10
4.18585e-11
5.31604e-12
6.60548e-13
8.07571e-14
9.8049e-15
1.21609e-15
1.46058e-16
0
0
0
0
0
0
0
0
0
0
0.158034
0.147588
0.135499
0.122551
0.10923
0.0957632
0.0821571
0.0682323
0.053707
0.038374
0.0228185
0.00995086
0.00299598
0.000690398
0.000137774
2.52595e-05
4.34029e-06
7.0461e-07
1.08635e-07
1.59789e-08
2.25237e-09
3.05743e-10
4.01865e-11
5.14808e-12
6.47968e-13
8.09762e-14
1.02177e-14
1.35579e-15
1.87335e-16
6.35033e-18
0
0
0
0
0
0
0
0
0
0
0.135202
0.126472
0.116288
0.105154
0.093357
0.0809767
0.0678697
0.053707
0.0380918
0.021578
0.0083531
0.00230098
0.000507932
9.94455e-05
1.8062e-05
3.08889e-06
5.00432e-07
7.71185e-08
1.1346e-08
1.59973e-09
2.17067e-10
2.84847e-11
3.63692e-12
4.55439e-13
5.66259e-14
7.14729e-15
9.46199e-16
1.36532e-16
0
0
0
0
0
0
0
0
0
0
0
0
0.115628
0.108088
0.099222
0.0893163
0.0784789
0.0666207
0.0534275
0.038374
0.021578
0.00744198
0.00145629
0.000279202
5.09234e-05
8.87972e-06
1.48115e-06
2.36306e-07
3.60812e-08
5.27958e-09
7.41804e-10
1.00344e-10
1.3112e-11
1.66244e-12
2.05814e-13
2.516e-14
3.11484e-15
4.09596e-16
5.71529e-17
0
0
0
0
0
0
0
0
0
0
0
0
0
0.0984018
0.0916649
0.0836679
0.074517
0.0641572
0.0523481
0.0386129
0.0228185
0.0083531
0.00145629
5.70744e-06
6.46272e-07
1.19177e-07
2.04064e-08
3.30052e-09
5.08482e-10
7.49516e-11
1.06066e-11
1.4458e-12
1.90583e-13
2.44392e-14
3.08308e-15
3.96895e-16
3.49268e-17
0
0
0
0
0
0
0
0
0
0
0
0
0
0
0
0
0.0827524
0.0765132
0.0690193
0.0602245
0.0499408
0.0377968
0.0236636
0.00995087
0.00230098
0.000279202
6.46272e-07
2.47463e-09
2.42131e-10
4.12873e-11
6.59004e-12
9.93915e-13
1.43016e-13
1.98511e-14
2.69889e-15
3.52443e-16
1.9051e-17
0
0
0
0
0
0
0
0
0
0
0
0
0
0
0
0
0
0
0
0.0679823
0.0619915
0.0546994
0.0459206
0.0353741
0.0230211
0.0107046
0.00299598
0.000507933
5.09233e-05
1.19177e-07
2.42131e-10
8.72662e-13
7.65405e-14
1.20561e-14
1.83207e-15
2.57188e-16
0
0
0
0
0
0
0
0
0
0
0
0
0
0
0
0
0
0
0
0
0
0
0
0.053455
0.0475151
0.0401596
0.0311702
0.0206536
0.010209
0.00328839
0.000690399
9.94455e-05
8.87972e-06
2.04064e-08
4.12873e-11
7.65405e-14
2.76239e-16
0
0
0
0
0
0
0
0
0
0
0
0
0
0
0
0
0
0
0
0
0
0
0
0
0
0
0.0385908
0.0325951
0.0252006
0.0166863
0.00851402
0.00304536
0.000759324
0.000137774
1.8062e-05
1.48115e-06
3.30052e-09
6.59004e-12
1.20561e-14
0
0
0
0
0
0
0
0
0
0
0
0
0
0
0
0
0
0
0
0
0
0
0
0
0
0
0
0.0233416
0.0178051
0.0116546
0.00606786
0.00236874
0.000686635
0.000150874
2.52595e-05
3.08889e-06
2.36306e-07
5.08482e-10
9.93915e-13
1.83207e-15
0
0
0
0
0
0
0
0
0
0
0
0
0
0
0
0
0
0
0
0
0
0
0
0
0
0
0
0.0101119
0.00664181
0.00358464
0.00153289
0.000512357
0.000134138