/*--------------------------------*- C++ -*----------------------------------*\
| =========                 |                                                 |
| \\      /  F ield         | OpenFOAM: The Open Source CFD Toolbox           |
|  \\    /   O peration     | Version:  2.1.0                                 |
|   \\  /    A nd           | Web:      www.OpenFOAM.org                      |
|    \\/     M anipulation  |                                                 |
\*---------------------------------------------------------------------------*/
FoamFile
{
    version     2.0;
    format      ascii;
    class       surfaceScalarField;
    location    "4015";
    object      phi_o;
}
// * * * * * * * * * * * * * * * * * * * * * * * * * * * * * * * * * * * * * //

dimensions      [1 -2 -2 0 0 0 0];

internalField   nonuniform List<scalar> 
22000
(
21.3499
21.3499
-28.559
36.7552
19.3493
-22.1266
46.4713
16.6373
-15.0273
52.3812
14.011
-9.55732
56.1879
11.757
-5.89066
59.0583
9.91166
-3.58161
61.723
8.42978
-2.18259
64.6346
7.26105
-1.39661
68.077
6.373
-1.08036
72.284
5.76822
-1.20802
77.44
5.48593
-1.87644
83.4348
5.51948
-3.29541
89.3559
5.63171
-5.56259
93.6991
5.34156
-7.88563
96.0298
4.58964
-8.12768
96.7334
3.73079
-5.54217
96.297
2.93236
-2.86669
95.3126
2.30067
-1.40339
94.1363
1.85413
-0.69541
92.9125
1.57023
-0.349532
91.6656
1.42407
-0.177797
90.3587
1.39813
-0.0913456
88.9235
1.48269
-0.047256
87.274
1.67425
-0.0246485
85.3142
1.97276
-0.0129871
82.9427
2.37832
-0.00687603
80.06
2.88635
-0.00366204
76.5793
3.48265
-0.00192845
72.4411
4.13916
-0.00100412
67.6285
4.81319
-0.000531783
62.1756
5.45312
-0.000313575
56.1648
6.01098
-0.000190821
49.709
6.4559
-8.73105e-05
42.9295
6.77964
-4.43483e-05
35.9364
6.99317
-4.17578e-05
28.8177
7.11881
-4.07056e-05
21.6354
7.18236
-5.59924e-05
14.4278
7.20777
-8.72975e-05
7.21386
7.21413
-0.000194376
7.21437
-0.000540331
19.3493
36.7552
-22.1266
34.0432
34.0432
-17.7294
43.845
30.0551
-12.4754
50.1273
25.9189
-8.17003
54.3425
22.1754
-5.14455
57.5764
18.9867
-3.17301
60.5543
16.3519
-1.95827
63.7465
14.2298
-1.29424
67.4722
12.591
-1.0908
72.0017
11.4642
-1.36482
77.4736
10.8866
-2.26076
83.547
10.7262
-3.98259
89.0658
10.4593
-6.37989
92.9472
9.56858
-8.12936
95.1709
8.24355
-7.28361
95.935
6.78685
-4.54943
95.6653
5.4159
-2.41797
94.8661
4.30555
-1.25041
93.8524
3.50124
-0.642297
92.7663
2.98373
-0.329079
91.6396
2.71951
-0.168997
90.4433
2.68188
-0.0872589
89.115
2.85658
-0.045323
87.5725
3.24051
-0.0237217
85.7197
3.83802
-0.0125067
83.4507
4.65393
-0.00666099
80.6563
5.6843
-0.00353924
77.2358
6.90505
-0.00185431
73.1152
8.26076
-0.0009884
68.2684
9.66038
-0.000567406
62.7335
10.9883
-0.000336434
56.6097
12.135
-0.000164198
50.0328
13.033
-6.45913e-05
43.143
13.6695
-3.36208e-05
36.062
14.0743
-3.14713e-05
28.8812
14.2997
-5.4657e-05
21.6608
14.4028
-7.7641e-05
14.4341
14.4344
-8.57839e-05
7.21411
14.4337
-0.000190154
14.427
-0.000548475
16.6373
46.4713
-15.0273
30.0551
43.845
-12.4754
39.7088
39.7088
-9.16482
46.3838
35.1242
-6.24003
51.1538
30.7278
-4.05231
54.9416
26.8018
-2.56249
58.4322
23.4349
-1.63837
62.1077
20.6403
-1.18803
66.3454
18.4492
-1.1939
71.4241
16.93
-1.74498
77.3131
16.0569
-3.03035
83.2802
15.435
-5.12643
88.175
14.3777
-7.33057
91.6222
12.7591
-7.8321
93.7142
10.8918
-5.82012
94.564
8.96349
-3.40178
94.555
7.21637
-1.88217
94.0618
5.8043
-1.0244
93.3349
4.7717
-0.547198
92.5021
4.10432
-0.288351
91.602
3.77073
-0.151017
90.618
3.74534
-0.0790264
89.499
4.01726
-0.0414792
88.17
4.59133
-0.0218936
86.5356
5.48399
-0.0116307
84.4811
6.7146
-0.00621978
81.877
8.29167
-0.00329691
78.5915
10.1923
-0.00175808
74.5148
12.3383
-0.000982799
69.5964
14.5793
-0.000575696
63.8802
16.7049
-0.000321313
57.5077
18.5077
-0.000145897
50.6692
19.8717
-5.24768e-05
43.5478
20.7909
-3.04136e-05
36.2875
21.3347
-4.89414e-05
28.9844
21.6029
-5.84851e-05
21.6924
21.695
-8.3847e-07
14.4334
21.6939
0.000108003
7.20738
21.6605
8.40869e-05
21.6341
-0.000180992
14.011
52.3813
-9.55736
25.9189
50.1273
-8.17003
35.1243
46.3838
-6.24002
41.9874
41.9873
-4.41118
47.2278
37.5365
-2.96159
51.5747
33.368
-1.9464
55.6376
29.6419
-1.35241
59.9167
26.4535
-1.181
64.8262
23.9135
-1.49949
70.5511
22.0832
-2.47204
76.6912
20.7228
-4.24905
82.223
19.1747
-6.47902
86.5564
17.113
-7.72271
89.7548
14.823
-6.55166
91.7859
12.4619
-4.16367
92.8169
10.2127
-2.43028
93.1429
8.26167
-1.40391
93.0292
6.70595
-0.794354
92.6676
5.57077
-0.438559
92.1685
4.84102
-0.237712
91.5766
4.49033
-0.127485
90.8899
4.50031
-0.0680493
90.073
4.87049
-0.0362935
89.0627
5.62111
-0.0193849
87.7662
6.79073
-0.0104271
86.0582
8.42819
-0.00561031
83.7777
10.5751
-0.00300847
80.7375
13.2341
-0.00164146
76.7557
16.321
-0.000933698
71.722
19.6135
-0.000546934
65.6829
22.7443
-0.000290606
58.8717
25.3191
-0.000123041
51.5885
27.155
-5.53441e-05
44.0916
28.2879
-5.71222e-05
36.5557
28.8706
-8.27441e-05
29.0765
29.0821
-0.000106492
21.6914
29.0801
-0.00010829
14.4
28.985
-4.00053e-05
7.18098
28.8798
5.91411e-06
28.8151
-5.67253e-05
11.757
56.1879
-5.89065
22.1754
54.3425
-5.14454
30.7278
51.1538
-4.05231
37.5365
47.2278
-2.96159
43.0593
43.0593
-2.06999
47.8486
38.9725
-1.47048
52.4492
35.1712
-1.22039
57.3767
31.8232
-1.40055
62.9958
29.047
-2.16578
69.1907
26.7173
-3.6902
75.1431
24.2901
-5.80364
80.1612
21.4392
-7.36879
84.2664
18.4906
-6.82469
87.3937
15.6241
-4.64194
89.5367
12.9291
-2.81718
90.8658
10.5416
-1.70511
91.5872
8.54925
-1.01842
91.894
6.98954
-0.59268
91.9378
5.86268
-0.336253
91.8178
5.14825
-0.187124
91.5866
4.82457
-0.102853
91.2601
4.88309
-0.0560906
90.8237
5.3375
-0.0304482
90.2323
6.22897
-0.0165443
89.4037
7.62818
-0.00902068
88.2051
9.63171
-0.00489685
86.4367
12.3463
-0.0026537
83.8244
15.8479
-0.00147942
80.0482
20.0978
-0.000870764
74.8528
24.8093
-0.00050211
68.2577
29.3396
-0.000251202
60.7077
32.8693
-0.00011323
52.7215
35.1412
-6.06024e-05
44.6742
36.3353
-4.92867e-05
36.7672
36.7778
-5.72727e-05
29.0745
36.7749
-7.53888e-05
21.5963
36.5585
-9.82283e-05
14.2948
36.2865
-6.27618e-05
7.11631
36.0584
-7.04792e-06
35.9315
9.95135e-06
9.91166
59.0583
-3.58161
18.9867
57.5764
-3.17301
26.8018
54.9416
-2.56249
33.368
51.5747
-1.94641
38.9726
47.8485
-1.47048
44.0472
44.0472
-1.2423
49.1012
40.389
-1.37115
54.6005
37.0082
-2.01916
60.6662
33.7949
-3.37305
66.7635
30.233
-5.35167
72.2922
26.0815
-7.00198
77.2126
22.0043
-6.79452
81.3999
18.3385
-4.83048
84.6987
15.1015
-3.01995
87.1493
12.3169
-1.89542
88.8735
9.9904
-1.18491
90.0275
8.11652
-0.723825
90.7672
6.67989
-0.430389
91.2234
5.65639
-0.250114
91.4941
5.02021
-0.142688
91.6451
4.75402
-0.080256
91.7145
4.85862
-0.0447217
91.7151
5.36165
-0.0248027
91.6315
6.3262
-0.0137402
91.4072
7.86005
-0.0075666
90.9196
10.1236
-0.00413897
89.9383
13.3299
-0.0023075
88.0743
17.713
-0.00135308
84.7598
23.4128
-0.000800865
79.383
30.1864
-0.000436577
71.7874
36.9354
-0.000213265
62.9796
41.6772
-8.94778e-05
53.9155
44.2054
-2.86102e-05
45.1168
45.134
-2.89563e-05
36.7642
45.1303
-6.59915e-05
28.8581
44.681
-8.62797e-05
21.3242
44.0925
-8.00313e-05
14.0668
43.5441
-3.24344e-05
6.98932
43.136
1.653e-05
42.9207
3.5613e-05
8.42978
61.723
-2.1826
16.3519
60.5543
-1.95828
23.4349
58.4322
-1.63838
29.6419
55.6376
-1.35242
35.1712
52.4492
-1.22039
40.389
49.1012
-1.37115
45.7203
45.7203
-1.97681
51.3872
42.14
-3.23295
57.1043
37.7013
-5.10306
62.612
31.972
-6.72635
68.215
25.8359
-6.61739
73.5468
20.6571
-4.7869
78.1629
16.5315
-3.05838
81.9141
13.2711
-1.97973
84.8228
10.6822
-1.28602
86.9996
8.63106
-0.81971
88.5908
7.03411
-0.509238
89.7437
5.83581
-0.30862
90.5872
4.99598
-0.183298
91.2279
4.48654
-0.107019
91.7497
4.29401
-0.0615708
92.2175
4.426
-0.0350779
92.6797
4.91926
-0.0198787
93.1653
5.85174
-0.0111744
93.6708
7.36091
-0.00623133
94.1259
9.67197
-0.00350943
94.3215
13.1361
-0.00204628
93.7741
18.2614
-0.00121459
91.5334
25.6541
-0.000689503
86.132
35.5881
-0.000361282
76.5292
46.5384
-0.000160482
65.5078
52.6988
-3.69403e-05
54.8441
54.8691
8.65739e-07
45.113
54.865
-3.59579e-05
36.315
53.9283
-7.54859e-05
28.2696
52.7265
-6.67054e-05
20.7758
51.5865
-3.90473e-05
13.6587
50.6613
-1.00282e-05
6.77405
50.0207
1.01003e-05
49.6947
2.2094e-05
7.26105
64.6346
-1.39661
14.2298
63.7465
-1.29424
20.6403
62.1077
-1.18803
26.4535
59.9167
-1.181
31.8232
57.3767
-1.40055
37.0082
54.6005
-2.01916
42.14
51.3872
-3.23295
46.9486
46.9485
-5.02509
51.3749
40.4412
-6.58096
56.476
32.0789
-6.42992
63.0361
23.1551
-4.63307
69.4213
17.0532
-3.00736
74.9024
13.0013
-2.00277
79.3251
10.1832
-1.34507
82.7717
8.12334
-0.889247
85.4027
6.57375
-0.574377
87.3925
5.40596
-0.362355
88.9038
4.54838
-0.223648
90.0778
3.95783
-0.135465
91.0354
3.60973
-0.0807804
91.8817
3.49542
-0.0475273
92.7108
3.62476
-0.0276921
93.6122
4.0339
-0.0159823
94.6745
4.79852
-0.00914081
95.9819
6.05862
-0.00522724
97.59
8.06661
-0.00303277
99.4468
11.2808
-0.00178899
101.167
16.5423
-0.00104069
101.467
25.3541
-0.000576781
97.0823
39.9735
-0.000287901
82.6896
60.9314
-0.000100231
67.6781
67.7102
-1.10027e-05
54.84
67.707
-1.96449e-05
44.1763
65.5286
-5.31602e-05
35.1131
62.9914
-4.5241e-05
27.1296
60.7101
-1.42745e-05
19.8507
58.8655
-1.12464e-05
13.018
57.494
-2.25747e-05
6.44811
56.5906
-1.4789e-05
56.1429
1.40159e-05
6.373
68.077
-1.08036
12.591
67.4722
-1.0908
18.4492
66.3454
-1.1939
23.9135
64.8262
-1.49949
29.047
62.9958
-2.16578
33.7949
60.6662
-3.37305
37.7013
57.1042
-5.10306
40.4412
51.3749
-6.58096
43.0126
43.0126
-6.34986
47.5522
31.3538
-4.51334
56.9341
16.579
-2.99164
65.3694
10.6366
-2.05778
72.0844
7.70451
-1.42573
77.2653
5.9736
-0.972879
81.2221
4.8154
-0.649738
84.2349
3.98546
-0.424297
86.535
3.37735
-0.271393
88.3133
2.94013
-0.170315
89.7297
2.64658
-0.105035
90.9211
2.48247
-0.0637837
92.0111
2.44391
-0.0382762
93.1199
2.53864
-0.0227222
94.3768
2.79037
-0.0133454
95.9346
3.2484
-0.00778237
97.9898
4.00778
-0.00453364
100.804
5.25468
-0.00266139
104.708
7.37807
-0.00156797
109.979
11.2725
-0.000904652
116.087
19.2465
-0.000492458
118.04
38.0203
-0.000227638
89.4684
89.5032
-7.43119e-05
67.6749
89.5036
-3.48728e-05
52.6617
82.7201
-4.48067e-05
41.639
76.5512
-2.70791e-05
32.8319
71.7986
1.33664e-05
25.2849
68.2572
1.97415e-05
18.4793
65.671
-1.51852e-05
12.1146
63.8586
-3.46447e-05
6.00039
62.7049
-7.6312e-06
62.1433
3.74405e-05
5.76822
72.284
-1.20802
11.4642
72.0017
-1.36482
16.93
71.4241
-1.74498
22.0832
70.5511
-2.47203
26.7173
69.1907
-3.6902
30.233
66.7635
-5.35167
31.972
62.612
-6.72635
32.0789
56.476
-6.42992
31.3538
47.5522
-4.51334
32.7775
32.7775
-3.01182
50.9917
30.9614
-2.27297
62.4373
42.1901
-1.64907
70.3535
47.9108
-1.16125
76.1071
51.416
-0.797709
80.3922
53.8502
-0.536146
83.6268
55.7154
-0.352929
86.0977
57.283
-0.227754
88.0197
58.7212
-0.144466
89.5656
60.1491
-0.0901549
90.8825
61.6617
-0.0554397
92.1058
63.3465
-0.0336627
93.3716
65.2978
-0.0202006
94.8348
67.6321
-0.012002
96.694
70.5116
-0.0070799
99.2367
74.1859
-0.00417334
102.928
79.0852
-0.00247031
108.603
86.0612
-0.00145268
117.953
97.1268
-0.000829354
134.861
118.117
-0.000440267
169.523
169.575
-0.000203061
89.4689
169.557
-8.30367e-05
60.8913
118.081
-5.57196e-05
46.4928
97.1185
-2.7168e-05
36.8864
86.1576
2.26664e-05
29.2905
79.3945
4.53365e-05
22.6988
74.8488
1.84941e-05
16.6668
71.7029
-1.43477e-05
10.9609
69.5644
-4.99504e-06
5.43882
68.227
3.62143e-05
67.5821
6.39397e-05
5.48593
77.44
-1.87644
10.8866
77.4736
-2.26076
16.0569
77.3131
-3.03035
20.7228
76.6912
-4.24905
24.2901
75.1431
-5.80364
26.0815
72.2922
-7.00198
25.8359
68.215
-6.61739
23.1551
63.0361
-4.63307
16.579
56.9341
-2.99164
30.9614
50.9917
-2.27297
62.2204
62.2204
-1.83311
68.158
78.8996
-1.29073
73.8587
90.0717
-0.900065
78.5412
97.749
-0.616742
82.2574
103.332
-0.415448
85.1943
107.665
-0.274413
87.536
111.268
-0.178099
89.4477
114.482
-0.113698
91.0781
117.548
-0.0714669
92.5673
120.658
-0.0443165
94.057
123.976
-0.0271085
95.706
127.67
-0.0163754
97.7143
131.927
-0.00981746
100.368
136.979
-0.00589951
104.136
143.138
-0.00358448
109.904
150.838
-0.00217645
119.668
160.654
-0.00127896
138.943
173.056
-0.000702597
186.318
186.519
-0.000347265
169.506
186.454
-0.000142512
37.9924
134.922
-5.08862e-05
39.9288
116.145
-3.54676e-05
35.5318
101.516
1.0073e-05
30.1233
91.566
4.64906e-05
24.7447
84.7731
4.24372e-05
19.5529
80.0404
2.01122e-05
14.5283
76.7276
2.16849e-05
9.62355
74.4691
5.04604e-05
4.79388
73.0566
7.08931e-05
72.3758
5.72588e-05
5.51948
83.4348
-3.29541
10.7262
83.547
-3.98259
15.435
83.2802
-5.12642
19.1747
82.2229
-6.47902
21.4392
80.1612
-7.36879
22.0043
77.2126
-6.79452
20.6571
73.5468
-4.7869
17.0532
69.4213
-3.00737
10.6366
65.3694
-2.05778
42.1902
62.4373
-1.64907
78.8997
68.158
-1.29073
79.33
79.33
-0.86342
81.536
88.4495
-0.583793
84.1237
95.5558
-0.394547
86.5907
101.129
-0.264273
88.7974
105.633
-0.174866
90.7498
109.43
-0.114112
92.5144
112.791
-0.0734537
94.1873
115.922
-0.0466574
95.8858
118.988
-0.0291923
97.7511
122.129
-0.0180184
99.9626
125.469
-0.0110651
102.766
129.129
-0.00682635
106.528
133.221
-0.004244
111.837
137.831
-0.00263019
119.72
142.956
-0.00158522
132.07
148.305
-0.000907639
152.406
152.722
-0.000486905
186.253
152.672
-0.000242962
117.974
139.096
-9.94674e-05
19.2154
118.042
-3.53988e-05
25.2998
110.06
-1.04368e-05
25.5823
101.233
2.83112e-05
23.3304
93.818
4.79153e-05
20.0121
88.0913
4.66955e-05
16.2401
83.8125
5.1409e-05
12.2698
80.6978
7.18424e-05
8.21108
78.5278
8.49677e-05
4.11305
77.1545
6.7499e-05
76.4886
2.55587e-05
5.63172
89.3559
-5.56259
10.4594
89.0658
-6.37989
14.3777
88.175
-7.33057
17.113
86.5564
-7.72271
18.4906
84.2664
-6.82469
18.3385
81.3999
-4.83048
16.5315
78.1629
-3.05838
13.0013
74.9024
-2.00277
7.70451
72.0844
-1.42573
47.9108
70.3535
-1.16125
90.0717
73.8587
-0.900065
88.4495
81.536
-0.583793
88.6424
88.6423
-0.384693
89.697
94.7573
-0.255383
91.0946
99.9007
-0.169533
92.5943
104.245
-0.11172
94.1106
107.987
-0.0730558
95.6457
111.303
-0.0472968
97.2537
114.344
-0.0301763
99.0264
117.234
-0.0189923
101.092
120.075
-0.0119162
103.622
122.945
-0.00753053
106.858
125.898
-0.00477881
111.138
128.943
-0.00300007
116.962
132.008
-0.00183845
125.068
134.852
-0.00109036
136.487
136.887
-0.000610874
152.356
136.853
-0.00031325
172.676
132.353
-0.00015601
96.9203
119.851
-7.5894e-05
11.2335
108.728
-2.71876e-05
16.4724
104.822
1.6407e-06
18.1674
99.538
3.85856e-05
17.6036
94.3817
6.26032e-05
15.7333
89.9615
7.60019e-05
13.1254
86.4204
8.98463e-05
10.0998
83.7233
9.80873e-05
6.83777
81.7897
8.43621e-05
3.44723
80.5447
4.76856e-05
79.9356
7.50247e-06
5.34156
93.6991
-7.88563
9.56858
92.9472
-8.12936
12.7591
91.6222
-7.8321
14.823
89.7548
-6.55166
15.6241
87.3937
-4.64194
15.1015
84.6987
-3.01996
13.2711
81.9141
-1.97973
10.1832
79.3251
-1.34507
5.9736
77.2653
-0.972879
51.416
76.1071
-0.797709
97.749
78.5412
-0.616742
95.5558
84.1237
-0.394547
94.7573
89.697
-0.255383
94.8405
94.8405
-0.167058
95.4391
99.412
-0.109456
96.3356
103.421
-0.0717838
97.4268
106.942
-0.0469345
98.6868
110.072
-0.0303842
100.144
112.905
-0.0194283
101.867
115.523
-0.0123596
103.962
117.986
-0.00791534
106.575
120.336
-0.00508085
109.903
122.573
-0.00321075
114.202
124.645
-0.00199677
119.806
126.406
-0.00123999
127.104
127.554
-0.000739055
136.453
127.538
-0.00037738
147.855
125.452
-0.00016306
160.174
120.034
-9.49228e-05
85.7976
110.129
-6.97921e-05
7.32717
103.1
-2.17147e-05
11.1887
100.96
1.73146e-05
13.0111
97.7156
6.21677e-05
13.1835
94.2093
9.03338e-05
12.1922
90.9527
0.000100658
10.4282
88.1843
0.000102253
8.16623
85.9852
9.53994e-05
5.59285
84.3629
7.53393e-05
2.83813
83.2993
4.65069e-05
82.7736
2.23544e-05
4.58965
96.0298
-8.12768
8.24356
95.1709
-7.28361
10.8918
93.7142
-5.82012
12.4619
91.7859
-4.16367
12.9291
89.5367
-2.81718
12.3169
87.1493
-1.89542
10.6822
84.8228
-1.28602
8.12334
82.7717
-0.889247
4.8154
81.2221
-0.649738
53.8502
80.3922
-0.536146
103.332
82.2574
-0.415448
101.129
86.5907
-0.264273
99.9007
91.0946
-0.169533
99.412
95.439
-0.109456
99.4476
99.4476
-0.0711496
99.8571
103.057
-0.0464441
100.557
106.271
-0.0302518
101.52
109.128
-0.0195407
102.761
111.676
-0.0125012
104.331
113.959
-0.00803336
106.311
116.01
-0.005193
108.813
117.837
-0.00330363
111.975
119.413
-0.00207631
115.963
120.658
-0.00133908
120.953
121.417
-0.000855963
127.088
121.42
-0.000458458
134.367
120.26
-0.000169232
142.437
117.382
-6.33806e-05
150.27
112.201
-7.82594e-05
78.7684
104.422
-6.38265e-05
5.18752
99.4722
-2.19207e-06
7.9442
98.2037
4.58273e-05
9.50485
96.155
8.59652e-05
9.92687
93.7872
9.94113e-05
9.42378
91.4557
9.50034e-05
8.22905
89.379
9.07558e-05
6.54398
87.6702
8.96601e-05
4.52921
86.3776
8.33248e-05
2.31248
85.5159
6.93031e-05
85.086
5.4808e-05
3.73079
96.7334
-5.54217
6.78686
95.935
-4.54943
8.96349
94.564
-3.40178
10.2127
92.8169
-2.43028
10.5416
90.8659
-1.70511
9.9904
88.8735
-1.18491
8.63106
86.9996
-0.81971
6.57375
85.4027
-0.574377
3.98546
84.2349
-0.424297
55.7154
83.6268
-0.352929
107.665
85.1943
-0.274413
105.633
88.7974
-0.174866
104.245
92.5943
-0.11172
103.421
96.3356
-0.0717838
103.057
99.8571
-0.0464441
103.072
103.072
-0.0301582
103.414
105.947
-0.0195364
104.068
108.487
-0.0125005
105.044
110.706
-0.00801555
106.382
112.626
-0.00522198
108.138
114.256
-0.00336906
110.389
115.587
-0.00213707
113.221
116.581
-0.00139698
116.722
117.158
-0.000931555
120.957
117.182
-0.00054012
125.927
116.451
-0.000211656
131.489
114.697
-4.60777e-05
137.255
111.616
-4.34632e-05
142.491
106.965
-7.0933e-05
73.8188
100.737
-2.77687e-05
3.91902
97.0151
3.33728e-05
5.8955
96.2274
7.31306e-05
7.13706
94.9134
9.02648e-05
7.59533
93.3288
8.38995e-05
7.34706
91.7038
7.7506e-05
6.52026
90.2057
8.7438e-05
5.25138
88.939
0.000104162
3.6675
87.9613
0.000109605
1.88258
87.3006
0.000100691
86.9684
8.83936e-05
2.93236
96.297
-2.86669
5.4159
95.6653
-2.41797
7.21637
94.555
-1.88217
8.26167
93.1429
-1.40391
8.54925
91.5872
-1.01842
8.11652
90.0275
-0.723825
7.03412
88.5908
-0.509238
5.40596
87.3925
-0.362355
3.37735
86.535
-0.271393
57.283
86.0977
-0.227754
111.268
87.536
-0.178099
109.43
90.7498
-0.114112
107.987
94.1106
-0.0730558
106.942
97.4268
-0.0469345
106.271
100.557
-0.0302518
105.947
103.414
-0.0195364
105.953
105.953
-0.0124848
106.288
108.16
-0.00797799
106.964
110.034
-0.00523789
108.011
111.581
-0.00345425
109.469
112.799
-0.00222739
111.383
113.674
-0.00145321
113.797
114.166
-0.000969597
116.746
114.21
-0.000594297
120.227
113.701
-0.000282071
124.173
112.505
-9.18559e-05
128.408
110.461
-4.05867e-05
132.604
107.42
-4.70661e-05
136.264
103.304
-2.29381e-05
70.0964
98.197
3.65985e-05
3.13131
95.2719
7.77092e-05
4.58151
94.7772
9.67526e-05
5.55244
93.9424
9.19254e-05
5.97037
92.9107
8.20295e-05
5.84894
91.8251
9.24869e-05
5.25355
90.801
0.00012316
4.27373
89.9187
0.000149876
3.00679
89.2281
0.000155289
1.55036
88.7569
0.000146726
88.5186
0.00014186
2.30067
95.3127
-1.40339
4.30555
94.8661
-1.25041
5.8043
94.0618
-1.0244
6.70595
93.0292
-0.794355
6.98954
91.894
-0.592681
6.67989
90.7672
-0.430389
5.83581
89.7437
-0.30862
4.54838
88.9038
-0.223648
2.94013
88.3133
-0.170315
58.7212
88.0197
-0.144466
114.482
89.4477
-0.113698
112.791
92.5144
-0.0734537
111.303
95.6457
-0.0472968
110.072
98.6868
-0.0303842
109.128
101.52
-0.0195407
108.487
104.068
-0.0125005
108.16
106.288
-0.00797799
108.162
108.162
-0.00524646
108.511
109.686
-0.00352531
109.23
110.863
-0.00232919
110.344
111.686
-0.00152853
111.875
112.143
-0.00100386
113.841
112.201
-0.000622267
116.238
111.813
-0.000347348
119.03
110.909
-0.000187972
122.129
109.407
-0.000117042
125.367
107.222
-7.44701e-05
128.489
104.298
-1.70297e-05
131.157
100.636
5.03778e-05
67.1712
96.3411
0.0001062
2.63664
93.9653
0.000141502
3.74665
93.6671
0.000145346
4.52076
93.1681
0.000136615
4.88481
92.5465
0.000142399
4.82479
91.885
0.000176182
4.37124
91.2543
0.000220615
3.58312
90.7065
0.000249014
2.53558
90.2753
0.0002557
1.31212
89.9801
0.000257963
89.8306
0.00027233
1.85413
94.1363
-0.69541
3.50124
93.8524
-0.642298
4.7717
93.3349
-0.547198
5.57077
92.6676
-0.438559
5.86268
91.9378
-0.336253
5.65639
91.2234
-0.250114
4.99599
90.5872
-0.183298
3.95783
90.0778
-0.135465
2.64658
89.7297
-0.105035
60.1491
89.5656
-0.0901549
117.548
91.0781
-0.0714669
115.922
94.1873
-0.0466574
114.344
97.2537
-0.0301763
112.905
100.144
-0.0194284
111.676
102.761
-0.0125012
110.706
105.044
-0.00801555
110.034
106.964
-0.00523789
109.686
108.511
-0.00352531
109.687
109.687
-0.00237557
110.054
110.497
-0.00159028
110.8
110.94
-0.00104545
111.934
111.009
-0.000643952
113.452
110.684
-0.000388092
115.334
109.932
-0.000278481
117.528
108.715
-0.00023596
119.945
106.99
-0.000176221
122.443
104.724
-8.10798e-05
124.827
101.914
2.01972e-05
126.861
98.6015
0.000103441
64.7955
94.894
0.00018784
2.33845
92.9098
0.000255797
3.24763
92.7577
0.000259124
3.89916
92.5163
0.000265826
4.22331
92.2221
0.00029913
4.19412
91.9139
0.000357858
3.82342
91.6246
0.000417851
3.1519
91.3775
0.000460245
2.24036
91.1863
0.000489217
1.16262
91.0574
0.000520379
90.9928
0.000559665
1.57023
92.9125
-0.349532
2.98373
92.7663
-0.329079
4.10433
92.5021
-0.288351
4.84103
92.1685
-0.237713
5.14825
91.8178
-0.187124
5.02021
91.4941
-0.142688
4.48654
91.2279
-0.107019
3.60973
91.0354
-0.0807804
2.48247
90.9211
-0.0637837
61.6617
90.8825
-0.0554397
120.658
92.5673
-0.0443166
118.988
95.8858
-0.0291923
117.234
99.0264
-0.0189923
115.523
101.867
-0.0123596
113.959
104.331
-0.00803335
112.626
106.382
-0.00522198
111.581
108.011
-0.00345425
110.863
109.23
-0.0023292
110.497
110.054
-0.00159028
110.497
110.497
-0.00106622
110.869
110.57
-0.000661683
111.609
110.271
-0.000406845
112.701
109.592
-0.0003246
114.116
108.518
-0.000319376
115.802
107.029
-0.000278495
117.679
105.113
-0.0001839
119.633
102.771
-7.54129e-05
121.514
100.032
3.01478e-05
123.154
96.9615
0.000154952
62.8112
93.6687
0.000334407
2.18641
91.9667
0.000458739
3.00626
91.9374
0.000475442
3.60496
91.9172
0.000515153
3.91509
91.9115
0.00059126
3.90482
91.9235
0.000692663
3.57633
91.9523
0.000796114
2.96071
91.9922
0.000888916
2.11145
92.0347
0.000973105
1.09803
92.07
0.00105068
92.09
0.00111374
1.42408
91.6656
-0.177797
2.71951
91.6396
-0.168997
3.77073
91.602
-0.151017
4.49033
91.5766
-0.127485
4.82457
91.5866
-0.102854
4.75402
91.6451
-0.080256
4.29401
91.7497
-0.0615709
3.49542
91.8817
-0.0475273
2.44391
92.0111
-0.0382762
63.3465
92.1058
-0.0336627
123.976
94.057
-0.0271085
122.129
97.7511
-0.0180184
120.075
101.092
-0.0119162
117.986
103.962
-0.00791533
116.01
106.311
-0.005193
114.256
108.138
-0.00336906
112.799
109.469
-0.00222739
111.686
110.344
-0.00152853
110.94
110.8
-0.00104545
110.57
110.869
-0.000661682
110.571
110.571
-0.000411998
110.93
109.913
-0.000334646
111.626
108.897
-0.000340031
112.627
107.518
-0.000308685
113.886
105.771
-0.000226796
115.338
103.663
-0.000144674
116.893
101.216
-6.50203e-05
118.444
98.4813
6.77524e-05
119.861
95.5442
0.000298658
61.1093
92.5205
0.000619448
2.1571
91.0189
0.00080233
2.98604
91.1076
0.000848447
3.59928
91.303
0.00094852
3.92714
91.5826
0.00110431
3.93357
91.9159
0.00129751
3.61628
92.2681
0.00150366
3.00317
92.6037
0.00170541
2.14676
92.8893
0.00188971
1.11801
93.0969
0.00203866
93.2061
0.00213146
1.39813
90.3587
-0.0913456
2.68188
90.4433
-0.087259
3.74534
90.618
-0.0790264
4.50031
90.8899
-0.0680493
4.88309
91.2601
-0.0560906
4.85862
91.7145
-0.0447217
4.426
92.2175
-0.035078
3.62476
92.7108
-0.0276921
2.53864
93.1199
-0.0227222
65.2978
93.3716
-0.0202006
127.67
95.706
-0.0163754
125.469
99.9626
-0.0110651
122.945
103.622
-0.00753053
120.336
106.575
-0.00508085
117.837
108.813
-0.00330363
115.587
110.389
-0.00213707
113.674
111.383
-0.00145321
112.143
111.875
-0.00100386
111.009
111.934
-0.000643952
110.271
111.609
-0.000406844
109.913
110.93
-0.000334646
109.914
109.914
-0.000336972
110.247
108.566
-0.000289621
110.881
106.886
-0.000188278
111.778
104.876
-0.000110718
112.89
102.551
-7.08183e-05
114.159
99.9476
1.72145e-05
115.507
97.1337
0.000246736
116.837
94.2133
0.000635489
59.6076
91.3221
0.00112304
2.24577
89.952
0.00138072
3.1815
90.1703
0.00148425
3.87887
90.604
0.00169766
4.2604
91.1991
0.00200891
4.28579
91.8881
0.00238867
3.95188
92.5992
0.00280121
3.28882
93.2636
0.00321026
2.35434
93.8203
0.00357595
1.22715
94.2204
0.00385447
94.4293
0.00400868
1.48269
88.9235
-0.047256
2.85658
89.115
-0.045323
4.01726
89.499
-0.0414792
4.87049
90.073
-0.0362935
5.3375
90.8237
-0.0304482
5.36165
91.7151
-0.0248027
4.91926
92.6797
-0.0198787
4.0339
93.6122
-0.0159823
2.79037
94.3768
-0.0133454
67.6321
94.8348
-0.012002
131.927
97.7143
-0.00981746
129.129
102.766
-0.00682634
125.898
106.858
-0.00477881
122.573
109.903
-0.00321075
119.413
111.975
-0.00207631
116.581
113.221
-0.00139698
114.166
113.797
-0.0009696
112.201
113.841
-0.000622267
110.684
113.452
-0.000388092
109.593
112.701
-0.0003246
108.897
111.626
-0.000340031
108.566
110.247
-0.000289622
108.567
108.567
-0.000155369
108.871
106.583
-3.51239e-05
109.453
104.295
1.76404e-05
110.287
101.718
7.44354e-05
111.345
98.89
0.000260798
112.586
95.8924
0.000652135
113.946
92.8531
0.00123942
58.2376
89.9447
0.00195721
2.46402
88.6388
0.00235985
3.61516
89.0165
0.00257282
4.47401
89.7421
0.00300013
4.94942
90.7201
0.00361037
4.99691
91.8363
0.00435336
4.61623
92.9747
0.00516616
3.84558
94.0283
0.00597441
2.75441
94.9049
0.00669248
1.43607
95.5316
0.00723262
95.858
0.0075244
1.67425
87.274
-0.0246485
3.24051
87.5725
-0.0237217
4.59133
88.17
-0.0218936
5.62111
89.0627
-0.0193849
6.22897
90.2323
-0.0165443
6.3262
91.6315
-0.0137402
5.85174
93.1653
-0.0111744
4.79852
94.6745
-0.00914081
3.2484
95.9346
-0.00778237
70.5116
96.694
-0.0070799
136.979
100.368
-0.00589951
133.221
106.528
-0.004244
128.943
111.138
-0.00300007
124.645
114.202
-0.00199677
120.658
115.963
-0.00133908
117.158
116.722
-0.00093156
114.21
116.746
-0.0005943
111.813
116.238
-0.000347349
109.932
115.334
-0.000278481
108.518
114.116
-0.000319377
107.518
112.627
-0.000308686
106.886
110.881
-0.000188279
106.583
108.871
-3.51247e-05
106.584
106.584
7.42679e-05
106.875
104.004
0.000166575
107.46
101.134
0.000346216
108.348
98.002
0.000715886
109.547
94.6925
0.00133128
111.038
91.3611
0.0022019
56.9317
88.2436
0.00331453
2.84166
86.9205
0.00400943
4.34076
87.5128
0.00443067
5.452
88.6255
0.00526343
6.06564
90.0999
0.00644686
6.13538
91.7586
0.00789389
5.6698
93.4308
0.00948922
4.72216
94.9649
0.011086
3.38115
96.2335
0.012511
1.7624
97.1369
0.0135867
97.6063
0.0141683
1.97276
85.3142
-0.0129871
3.83802
85.7197
-0.0125067
5.48399
86.5356
-0.0116307
6.79073
87.7662
-0.0104271
7.62818
89.4037
-0.00902068
7.86005
91.4072
-0.0075666
7.36091
93.6708
-0.00623132
6.05862
95.9819
-0.00522724
4.00778
97.9898
-0.00453363
74.1859
99.2367
-0.00417334
143.138
104.136
-0.00358448
137.831
111.837
-0.00263019
132.008
116.962
-0.00183845
126.406
119.806
-0.00124
121.417
120.953
-0.000855969
117.182
120.957
-0.000540124
113.701
120.227
-0.000282074
110.909
119.03
-0.000187973
108.715
117.528
-0.000235962
107.029
115.802
-0.000278497
105.771
113.886
-0.000226798
104.876
111.778
-0.00011072
104.295
109.453
1.76388e-05
104.004
106.875
0.000166574
104.004
104.004
0.00039776
104.328
100.81
0.000788873
105.038
97.2912
0.00141857
106.216
93.5135
0.00236414
107.92
89.6535
0.0037008
55.6086
86.0427
0.00551913
3.43399
84.5808
0.00675745
5.45343
85.4856
0.00757891
6.92642
87.1431
0.00918451
7.72432
89.2904
0.011469
7.80762
91.6609
0.0142832
7.20389
94.0171
0.0174163
5.99075
96.1575
0.020582
4.28458
97.9163
0.0234306
2.23177
99.1642
0.025596
99.8114
0.0267699
2.37832
82.9427
-0.00687603
4.65393
83.4507
-0.00666099
6.7146
84.4811
-0.00621978
8.42819
86.0582
-0.0056103
9.63171
88.2051
-0.00489684
10.1236
90.9196
-0.00413896
9.67197
94.1259
-0.00350942
8.06661
97.59
-0.00303276
5.25468
100.804
-0.00266139
79.0852
102.928
-0.00247031
150.838
109.904
-0.00217646
142.956
119.72
-0.00158523
134.852
125.068
-0.00109036
127.554
127.104
-0.000739062
121.42
127.088
-0.000458463
116.451
125.927
-0.000211659
112.505
124.173
-9.18588e-05
109.407
122.129
-0.000117046
106.99
119.945
-0.000176225
105.113
117.679
-0.000183903
103.663
115.338
-0.000144677
102.551
112.89
-7.08209e-05
101.718
110.287
7.44334e-05
101.134
107.46
0.000346215
100.81
104.328
0.000788872
100.809
100.809
0.00145926
101.26
96.8385
0.00245684
102.356
92.415
0.00392267
104.309
87.6943
0.00604017
54.1466
83.122
0.00907706
4.33881
81.3028
0.011273
7.11096
82.7004
0.0128636
9.07368
85.1643
0.015942
10.0948
88.2488
0.0203368
10.1638
91.566
0.0257995
9.34427
94.8046
0.0319501
7.74959
97.7139
0.0382372
5.53251
100.09
0.0439549
2.87891
101.77
0.048338
102.64
0.0507243
2.88635
80.06
-0.00366204
5.6843
80.6563
-0.00353923
8.29167
81.877
-0.00329691
10.5751
83.7777
-0.00300847
12.3463
86.4367
-0.0026537
13.3299
89.9383
-0.0023075
13.1361
94.3215
-0.00204628
11.2808
99.4468
-0.00178899
7.37807
104.708
-0.00156797
86.0612
108.603
-0.00145269
160.654
119.668
-0.00127897
148.305
132.07
-0.000907646
136.887
136.487
-0.000610881
127.538
136.453
-0.000377385
120.26
134.367
-0.000169236
114.697
131.489
-4.60814e-05
110.461
128.408
-4.05916e-05
107.222
125.367
-7.44763e-05
104.724
122.443
-8.10862e-05
102.771
119.633
-7.54182e-05
101.216
116.893
-6.50242e-05
99.9476
114.159
1.72118e-05
98.89
111.345
0.000260795
98.002
108.348
0.000715884
97.2912
105.038
0.00141857
96.8385
101.26
0.00245684
96.8368
96.8368
0.00399749
97.6349
91.6112
0.00628294
99.7371
85.5826
0.00966853
52.3274
79.2256
0.0147257
5.73646
76.5839
0.0185535
9.57485
78.8403
0.0216135
12.1581
82.5535
0.0274877
13.412
86.9589
0.0359053
13.4025
91.5291
0.0464737
12.2536
95.895
0.0585309
10.1252
99.7714
0.0710295
7.2126
102.92
0.0825457
3.74892
105.142
0.0914686
106.292
0.0963583
3.48265
76.5793
-0.00192844
6.90505
77.2358
-0.00185431
10.1923
78.5915
-0.00175808
13.2341
80.7375
-0.00164146
15.8479
83.8244
-0.00147942
17.713
88.0743
-0.00135308
18.2614
93.7741
-0.00121459
16.5423
101.167
-0.00104069
11.2725
109.979
-0.000904656
97.1268
117.953
-0.000829358
173.056
138.943
-0.000702602
152.722
152.406
-0.00048691
136.853
152.356
-0.000313254
125.452
147.855
-0.000163063
117.382
142.437
-6.33844e-05
111.616
137.255