/*--------------------------------*- C++ -*----------------------------------*\
| =========                 |                                                 |
| \\      /  F ield         | OpenFOAM: The Open Source CFD Toolbox           |
|  \\    /   O peration     | Version:  2.1.0                                 |
|   \\  /    A nd           | Web:      www.OpenFOAM.org                      |
|    \\/     M anipulation  |                                                 |
\*---------------------------------------------------------------------------*/
FoamFile
{
    version     2.0;
    format      ascii;
    class       volScalarField;
    location    "4015";
    object      po;
}
// * * * * * * * * * * * * * * * * * * * * * * * * * * * * * * * * * * * * * //

dimensions      [1 -1 -2 0 0 0 0];

internalField   nonuniform List<scalar> 
8000
(
15089.9
15068.5
15031.8
14985.3
14932.9
14876.7
14817.7
14756
14691.3
14623.2
14551
14473.5
14390.1
14300.7
14207
14111
14014.3
13918
13822.7
13728.5
13635.6
13543.9
13453.6
13364.7
13277.4
13192.1
13109.1
13029.1
12952.5
12880.1
12812.4
12750.2
12694.1
12644.4
12601.4
12565.5
12536.7
12515.1
12500.6
12493.4
15068.5
15049.2
15015.1
14971.3
14921.2
14866.8
14809.2
14748.7
14684.9
14617.5
14545.5
14468
14384.5
14295.4
14202.4
14107.3
14011.3
13915.7
13820.8
13727
13634.2
13542.5
13452.1
13363
13275.4
13189.7
13106.2
13025.6
12948.4
12875.2
12807
12744.2
12687.6
12637.6
12594.4
12558.4
12529.5
12507.8
12493.4
12486.2
15031.8
15015.1
14985.1
14945.4
14899
14847.8
14792.9
14734.5
14672.4
14606
14534.6
14457.3
14374
14285.8
14194.2
14100.5
14005.9
13911.4
13817.3
13724
13631.5
13539.9
13449.2
13359.7
13271.6
13185
13100.6
13018.7
12940.1
12865.6
12796
12732.1
12674.6
12623.9
12580.4
12544.1
12515.1
12493.4
12479
12471.8
14985.3
14971.3
14945.4
14910.3
14868.3
14821
14769.5
14713.8
14653.9
14589.1
14518.5
14441.8
14359.6
14273.1
14183.3
14091.5
13998.7
13905.6
13812.5
13719.9
13627.7
13536.1
13445.2
13355.2
13266.1
13178.3
13092.3
13008.5
12927.8
12851
12779.3
12713.6
12654.7
12603.1
12559
12522.5
12493.4
12471.7
12457.3
12450.1
14932.9
14921.2
14899
14868.3
14830.7
14787.7
14739.8
14687.4
14630
14567
14497.8
14422.7
14342.5
14258.2
14170.8
14081.3
13990.4
13898.9
13807
13715
13623.2
13531.6
13440.4
13349.5
13259.3
13169.9
13081.7
12995.3
12911.4
12831.4
12756.5
12688.3
12627.6
12574.8
12530.2
12493.4
12464.3
12442.7
12428.4
12421.3
14876.7
14866.8
14847.8
14821
14787.7
14748.7
14704.6
14655.5
14600.9
14540.3
14473.5
14401.2
14324
14242.6
14157.9
14070.8
13981.9
13891.9
13801.1
13709.9
13618.4
13526.7
13435
13343.3
13251.7
13160.3
13069.3
12979.4
12891.3
12806.6
12727.2
12655.4
12592.4
12538.5
12493.4
12456.6
12427.8
12406.4
12392.4
12385.4
14817.7
14809.2
14792.9
14769.5
14739.8
14704.6
14664.3
14618.5
14567.2
14510
14447.4
14379.2
14305.7
14227.5
14145.6
14060.8
13973.8
13885.2
13795.4
13704.9
13613.6
13521.9
13429.7
13337
13243.8
13150.1
13056
12961.7
12867.9
12776.4
12690.3
12613.7
12548.2
12493.4
12448.3
12411.9
12383.7
12362.9
12349.2
12342.5
14756
14748.7
14734.5
14713.8
14687.4
14655.5
14618.5
14576.4
14529.5
14478.1
14421.6
14358.6
14289.1
14214.2
14134.9
14052.1
13966.7
13879.3
13790.4
13700.4
13609.3
13517.5
13424.7
13331.1
13236.5
13140.5
13042.9
12943.4
12842.3
12740.8
12643.7
12561
12493.4
12438.5
12394.3
12359.2
12332.1
12312.2
12299.2
12292.8
14691.3
14684.9
14672.4
14653.9
14630
14600.9
14567.2
14529.5
14489
14446
14398.4
14341.5
14276.1
14204.1
14126.8
14045.6
13961.3
13874.8
13786.5
13696.8
13605.8
13513.8
13420.7
13326.3
13230.4
13132.4
13031.6
12926.9
12816.9
12700.8
12582.8
12493.3
12425.6
12373
12331.3
12298.5
12273.2
12254.7
12242.6
12236.6
14623.2
14617.5
14606
14589.1
14567
14540.3
14510
14478.1
14446
14414.6
14381.9
14330.9
14268.4
14198.1
14122
14041.6
13958
13871.9
13783.8
13694.3
13603.4
13511.3
13417.9
13323.1
13226.4
13127.1
13024.2
12915.6
12797.7
12662.8
12493.3
12403.8
12342.9
12296.4
12259.5
12230.3
12207.6
12190.9
12179.9
12174.5
14551
14545.5
14534.6
14518.5
14497.8
14473.5
14447.4
14421.6
14398.4
14381.9
14350.9
14288.7
14220.5
14146.7
14068.1
13985.9
13900.7
13813.1
13723.7
13632.6
13540
13446
13350.3
13252.6
13152.2
13048.1
12938.2
12818.5
12679.6
12493.2
12323.7
12285.7
12245.8
12210.3
12180.1
12155.4
12135.9
12121.3
12111.7
12106.9
14473.5
14468
14457.3
14441.8
14422.7
14401.2
14379.2
14358.6
14341.5
14330.9
14288.7
14209.8
14130.5
14048.9
13964.8
13878.2
13789.4
13698.7
13606.1
13512
13416.1
13318.3
13218.4
13115.6
13009.1
12897.2
12777.5
12645.4
12493
12306.8
12188.8
12169.6
12144.3
12118.7
12095.4
12075.4
12059.1
12046.9
12038.6
12034.5
14390.1
14384.5
14374
14359.6
14342.5
14324
14305.7
14289.1
14276.1
14268.4
14220.5
14130.5
14042
13953.4
13863.7
13772.6
13680
13585.9
13490.2
13393
13293.9
13192.8
13089.2
12982.4
12871.2
12754.3
12629.2
12492.7
12340.4
12167.7
12070.8
12059.5
12043.1
12024.9
12007.3
11991.6
11978.4
11968.3
11961.5
11958
14300.7
14295.4
14285.8
14273.1
14258.2
14242.6
14227.5
14214.2
14204.1
14198.1
14146.7
14048.9
13953.4
13858.6
13763.8
13668.3
13572
13474.6
13375.9
13275.7
13173.9
13069.9
12963.3
12853.4
12739.2
12619.4
12492.3
12355.9
12208
12047.8
11962
11954.7
11943.5
11930.5
11917.3
11905.1
11894.7
11886.5
11880.9
11878.1
14207
14202.4
14194.2
14183.3
14170.8
14157.9
14145.6
14134.9
14126.8
14122
14068.1
13964.8
13863.7
13763.8
13664.4
13564.9
13465
13364.5
13263
13160.2
13055.9
12949.6
12840.8
12728.8
12612.8
12491.9
12364.8
12230.4
12088
11937.7
11858.9
11853.7
11845.8
11836.3
11826.4
11816.9
11808.7
11802.2
11797.6
11795.3
14111
14107.3
14100.5
14091.5
14081.3
14070.8
14060.8
14052.1
14045.6
14041.6
13985.9
13878.2
13772.6
13668.3
13564.9
13461.8
13358.8
13255.4
13151.3
13046.3
12939.9
12831.7
12721.3
12608.1
12491.4
12370.4
12244.5
12113
11975.8
11833.3
11759.5
11755.5
11749.6
11742.5
11734.9
11727.6
11721
11715.8
11712.1
11710.2
14014.3
14011.3
14005.9
13998.7
13990.4
13981.9
13973.8
13966.7
13961.3
13958
13900.7
13789.4
13680
13572
13465
13358.8
13252.8
13146.9
13040.6
12933.6
12825.6
12716.1
12604.8
12491
12374.2
12254
12129.8
12001.4
11868.8
11732.5
11662.4
11659.3
11654.7
11649.2
11643.2
11637.4
11632.1
11627.8
11624.8
11623.3
13918
13915.7
13911.4
13905.6
13898.9
13891.9
13885.2
13879.3
13874.8
13871.9
13813.1
13698.7
13585.9
13474.6
13364.5
13255.4
13146.9
13038.7
12930.6
12822
12712.8
12602.5
12490.6
12376.8
12260.5
12141.5
12019.4
11894
11765.5
11634.3
11567.2
11564.5
11560.8
11556.3
11551.4
11546.6
11542.2
11538.6
11536.1
11534.8
13822.7
13820.8
13817.3
13812.5
13807
13801.1
13795.4
13790.4
13786.5
13783.8
13723.7
13606.1
13490.2
13375.9
13263
13151.3
13040.6
12930.6
12820.9
12711.2
12601.1
12490.3
12378.4
12264.9
12149.6
12032.1
11912.1
11789.7
11664.9
11538
11473.2
11470.9
11467.6
11463.7
11459.5
11455.3
11451.5
11448.3
11446.1
11444.9
13728.5
13727
13724
13719.9
13715
13709.9
13704.9
13700.4
13696.8
13694.3
13632.6
13512
13393
13275.7
13160.2
13046.3
12933.6
12822
12711.2
12600.7
12490.2
12379.3
12267.7
12155
12040.9
11925.1
11807.4
11687.8
11566.3
11443.1
11380.3
11378.1
11375.1
11371.5
11367.6
11363.7
11360.1
11357.1
11355
11353.9
13635.6
13634.2
13631.5
13627.7
13623.2
13618.4
13613.6
13609.3
13605.8
13603.4
13540
13416.1
13293.9
13173.9
13055.9
12939.9
12825.6
12712.8
12601.1
12490.2
12379.6
12269
12158.1
12046.5
11933.9
11820
11704.6
11587.7
11469.3
11349.4
11288.3
11286.2
11283.2
11279.6
11275.7
11271.7
11268.1
11265.1
11263
11261.8
13543.9
13542.5
13539.9
13536.1
13531.6
13526.7
13521.9
13517.5
13513.8
13511.3
13446
13318.3
13192.8
13069.9
12949.6
12831.7
12716.1
12602.5
12490.3
12379.3
12269
12159.1
12049.2
11939
11828.1
11716.3
11603.4
11489.3
11373.8
11256.9
11197.3
11195.1
11191.9
11188
11183.7
11179.5
11175.5
11172.2
11169.9
11168.6
13453.6
13452.1
13449.2
13445.2
13440.4
13435
13429.7
13424.7
13420.7
13417.9
13350.3
13218.4
13089.2
12963.3
12840.8
12721.3
12604.8
12490.6
12378.4
12267.7
12158.1
12049.2
11940.7
11832.1
11723.2
11613.8
11503.5
11392.1
11279.5
11165.6
11107.4
11104.9
11101.3
11096.8
11091.9
11086.9
11082.2
11078.4
11075.6
11074.2
13364.7
13363
13359.7
13355.2
13349.5
13343.3
13337
13331.1
13326.3
13323.1
13252.6
13115.6
12982.4
12853.4
12728.8
12608.1
12491
12376.8
12264.9
12155
12046.5
11939
11832.1
11725.5
11618.9
11512
11404.6
11296.2
11186.7
11075.7
11018.7
11015.9
11011.5
11006.1
11000
10993.9
10988.2
10983.5
10980.1
10978.4
13277.4
13275.4
13271.6
13266.1
13259.3
13251.7
13243.8
13236.5
13230.4
13226.4
13152.2
13009.1
12871.2
12739.2
12612.8
12491.4
12374.2
12260.5
12149.6
12040.9
11933.9
11828.1
11723.2
11618.9
11514.9
11410.9
11306.6
11201.5
11095.3
10987.4
10931.8
10928.4
10922.9
10916
10908.3
10900.5
10893.3
10887.3
10883
10880.7
13192.1
13189.7
13185
13178.3
13169.9
13160.3
13150.1
13140.5
13132.4
13127.1
13048.1
12897.2
12754.3
12619.4
12491.9
12370.4
12254
12141.5
12032.1
11925.1
11820
11716.3
11613.8
11512
11410.9
11310.1
11209.3
11108
11005.7
10901.4
10847.2
10842.9
10835.8
10826.7
10816.6
10806.4
10797.1
10789.3
10783.8
10780.9
13109.1
13106.2
13100.6
13092.3
13081.7
13069.3
13056
13042.9
13031.6
13024.2
12938.2
12777.5
12629.2
12492.3
12364.8
12244.5
12129.8
12019.4
11912.1
11807.4
11704.6
11603.4
11503.5
11404.6
11306.6
11209.3
11112.5
11015.6
10918
10818.2
10765.9
10760.2
10750.6
10738.4
10725
10711.6
10699.4
10689.3
10682
10678.3
13029.1
13025.6
13018.7
13008.5
12995.3
12979.4
12961.7
12943.4
12926.9
12915.6
12818.5
12645.4
12492.7
12355.9
12230.4
12113
12001.4
11894
11789.7
11687.8
11587.7
11489.3
11392.1
11296.2
11201.5
11108
11015.6
10924
10832.4
10739
10689.3
10681.3
10668.1
10651.5
10633.5
10615.7
10599.6
10586.3
10576.9
10572
12952.5
12948.4
12940.1
12927.8
12911.4
12891.3
12867.9
12842.3
12816.9
12797.7
12679.6
12493
12340.4
12208
12088
11975.8
11868.8
11765.5
11664.9
11566.3
11469.3
11373.8
11279.5
11186.7
11095.3
11005.7
10918
10832.4
10748.6
10664.8
10619.8
10607.8
10588.8
10566
10541.8
10518.3
10497.1
10479.7
10467.4
10461
12880.1
12875.2
12865.6
12851
12831.4
12806.6
12776.4
12740.8
12700.8
12662.8
12493.2
12306.8
12167.7
12047.8
11937.7
11833.3
11732.5
11634.3
11538
11443.1
11349.4
11256.9
11165.6
11075.7
10987.4
10901.4
10818.2
10739
10664.8
10596.1
10561.4
10541.4
10513.5
10482
10449.7
10418.7
10391
10368.4
10352.3
10343.9
12812.4
12807
12796
12779.3
12756.5
12727.2
12690.3
12643.7
12582.8
12493.3
12323.7
12188.8
12070.8
11962
11858.9
11759.5
11662.4
11567.2
11473.2
11380.3
11288.3
11197.3
11107.4
11018.7
10931.8
10847.2
10765.9
10689.3
10619.8
10561.4
10522.2
10483.2
10441.8
10399
10356.5
10316.3
10280.4
10251
10230.1
10219.2
12750.2
12744.2
12732.1
12713.6
12688.3
12655.4
12613.7
12561
12493.3
12403.8
12285.7
12169.6
12059.5
11954.7
11853.7
11755.5
11659.3
11564.5
11470.9
11378.1
11286.2
11195.1
11104.9
11015.9
10928.4
10842.9
10760.2
10681.3
10607.8
10541.4
10483.2
10427.4
10371.7
10316
10261.5
10210.1
10164.1
10126.2
10099
10084.8
12694.1
12687.6
12674.6
12654.7
12627.6
12592.4
12548.2
12493.4
12425.6
12342.9
12245.8
12144.3
12043.1
11943.5
11845.8
11749.6
11654.7
11560.8
11467.6
11375.1
11283.2
11191.9
11101.3
11011.5
10922.9
10835.8
10750.6
10668.1
10588.8
10513.5
10441.8
10371.7
10301.9
10232.4
10164.3
10099.6
10041.1
9992.48
9957.29
9938.75
12644.4
12637.6
12623.9
12603.1
12574.8
12538.5
12493.4
12438.5
12373
12296.4
12210.3
12118.7
12024.9
11930.5
11836.3
11742.5
11649.2
11556.3
11463.7
11371.5
11279.6
11188
11096.8
11006.1
10916
10826.7
10738.4
10651.5
10566
10482
10399
10316
10232.4
10148.4
10065
9984.8
9911.19
9848.9
9803.18
9778.84
12601.4
12594.4
12580.4
12559
12530.2
12493.4
12448.3
12394.3
12331.3
12259.5
12180.1
12095.4
12007.3
11917.3
11826.4
11734.9
11643.2
11551.4
11459.5
11367.6
11275.7
11183.7
11091.9
11000
10908.3
10816.6
10725
10633.5
10541.8
10449.7
10356.5
10261.5
10164.3
10065
9964.99
9866.8
9774.83
9695.3
9635.77
9603.61
12565.5
12558.4
12544.1
12522.5
12493.4
12456.6
12411.9
12359.2
12298.5
12230.3
12155.4
12075.4
11991.6
11905.1
11816.9
11727.6
11637.4
11546.6
11455.3
11363.7
11271.7
11179.5
11086.9
10993.9
10900.5
10806.4
10711.6
10615.7
10518.3
10418.7
10316.3
10210.1
10099.6
9984.8
9866.8
9748.35
9634.58
9533.57
9456.03
9413.32
12536.7
12529.5
12515.1
12493.4
12464.3
12427.8
12383.7
12332.1
12273.2
12207.6
12135.9
12059.1
11978.4
11894.7
11808.7
11721
11632.1
11542.2
11451.5
11360.1
11268.1
11175.5
11082.2
10988.2
10893.3
10797.1
10699.4
10599.6
10497.1
10391
10280.4
10164.1
10041.1
9911.19
9774.83
9634.58
9496.08
9369.28
9268.95
9212.32
12515.1
12507.8
12493.4
12471.7
12442.7
12406.4
12362.9
12312.2
12254.7
12190.9
12121.3
12046.9
11968.3
11886.5
11802.2
11715.8
11627.8
11538.6
11448.3
11357.1
11265.1
11172.2
11078.4
10983.5
10887.3
10789.3
10689.3
10586.3
10479.7
10368.4
10251
10126.2
9992.48
9848.9
9695.3
9533.57
9369.28
9213.96
9086.79
9012.82
12500.6
12493.4
12479
12457.3
12428.4
12392.4
12349.2
12299.2
12242.6
12179.9
12111.7
12038.6
11961.5
11880.9
11797.6
11712.1
11624.8
11536.1
11446.1
11355
11263
11169.9
11075.6
10980.1
10883
10783.8
10682
10576.9
10467.4
10352.3
10230.1
10099
9957.29
9803.18
9635.77
9456.03
9268.95
9086.79
8932.57
8839.86
12493.4
12486.2
12471.8
12450.1
12421.3
12385.4
12342.5
12292.8
12236.6
12174.5
12106.9
12034.5
11958
11878.1
11795.3
11710.2
11623.3
11534.8
11444.9
11353.9
11261.8
11168.6
11074.2
10978.4
10880.7
10780.9
10678.3
10572
10461
10343.9
10219.2
10084.8
9938.75
9778.84
9603.61
9413.32
9212.32
9012.82
8839.86
8733.09
15118.4
15090.7
15046.8
14994.9
14938.8
14880.3
14819.9
14757.4
14692.4
14624.5
14552.8
14476.8
14395.6
14308.6
14215.2
14116.5
14017.1
13919.4
13823.4
13728.9
13635.8
13544
13453.6
13364.7
13277.4
13192.1
13109.1
13029.1
12952.5
12880.1
12812.4
12750.2
12694.1
12644.4
12601.4
12565.5
12536.7
12515.1
12500.6
12493.4
15090.7
15066.9
15027.6
14979.5
14926.3
14870
14811.2
14750
14686
14618.8
14547.7
14472
14390.8
14303.5
14209.7
14111.8
14013.8
13916.9
13821.4
13727.3
13634.4
13542.6
13452.1
13363
13275.4
13189.7
13106.2
13025.6
12948.4
12875.2
12807
12744.2
12687.6
12637.6
12594.4
12558.4
12529.5
12507.8
12493.4
12486.2
15046.8
15027.6
14994.3
14951.6
14903
14850.4
14794.5
14735.7
14673.6
14607.8
14537.6
14462.4
14381.3
14293.7
14200
14103.9
14007.8
13912.4
13817.8
13724.3
13631.6
13539.9
13449.3
13359.8
13271.6
13185
13100.6
13018.7
12940.1
12865.6
12796
12732.1
12674.6
12623.9
12580.4
12544.1
12515.1
12493.4
12479
12471.8
14994.9
14979.5
14951.6
14914.7
14871.2
14823
14770.8
14715
14655.4
14591.6
14522.8
14448.3
14367.3
14279.6
14187.5
14094
14000.1
13906.4
13813
13720.1
13627.8
13536.2
13445.3
13355.2
13266.1
13178.3
13092.3
13008.5
12927.8
12851
12779.3
12713.6
12654.7
12603.1
12559
12522.5
12493.4
12471.7
12457.3
12450.1
14938.8
14926.3
14903
14871.2
14832.8
14789.1
14741
14688.8
14632.2
14570.7
14503.6
14430
14349.3
14262.9
14173.7
14083
13991.5
13899.4
13807.3
13715.2
13623.3
13531.7
13440.4
13349.6
13259.3
13169.9
13081.7
12995.3
12911.4
12831.4
12756.5
12688.3
12627.6
12574.8
12530.2
12493.4
12464.3
12442.7
12428.4
12421.3
14880.3
14870
14850.4
14823
14789.1
14749.9
14706
14657.6
14604.3
14545.6
14480.5
14408
14328.8
14245.6
14159.8
14072
13982.6
13892.3
13801.3
13710
13618.5
13526.8
13435
13343.3
13251.7
13160.3
13069.3
12979.4
12891.3
12806.6
12727.2
12655.4
12592.4
12538.5
12493.4
12456.6
12427.8
12406.4
12392.4
12385.4
14819.9
14811.2
14794.5
14770.8
14741
14706
14666.2
14621.8
14572.3
14516.8
14454.1
14384
14308.7
14229.5
14146.9
14061.6
13974.3
13885.5
13795.6
13705
13613.7
13521.9
13429.7
13337
13243.8
13150.1
13056
12961.7
12867.9
12776.4
12690.3
12613.7
12548.2
12493.4
12448.3
12411.9
12383.7
12362.9
12349.2
12342.5
14757.4
14750
14735.7
14715
14688.8
14657.6
14621.8
14581.4
14536
14484.5
14426.2
14361.6
14291.1
14215.6
14135.8
14052.7
13967.1
13879.6
13790.6
13700.4
13609.4
13517.5
13424.8
13331.1
13236.5
13140.5
13042.9
12943.4
12842.3
12740.8
12643.7
12561
12493.4
12438.5
12394.3
12359.2
12332.1
12312.2
12299.2
12292.8
14692.4
14686
14673.6
14655.4
14632.2
14604.3
14572.3
14536
14495.4
14450.5
14401.4
14343.6
14277.6
14205
14127.4
14046
13961.6
13875
13786.6
13696.8
13605.9
13513.8
13420.7
13326.3
13230.4
13132.4
13031.6
12926.9
12816.9
12700.8
12582.8
12493.3
12425.6
12373
12331.3
12298.5
12273.2
12254.7
12242.6
12236.6
14624.5
14618.8
14607.8
14591.6
14570.7
14545.6
14516.8
14484.5
14450.5
14417.7
14384.1
14332.5
14269.6
14198.9
14122.5
14041.9
13958.2
13872
13783.9
13694.3
13603.4
13511.3
13417.9
13323.1
13226.4
13127.2
13024.2
12915.6
12797.7
12662.8
12493.3
12403.8
12342.9
12296.4
12259.5
12230.3
12207.6
12190.9
12179.9
12174.5
14552.8
14547.7
14537.6
14522.8
14503.6
14480.5
14454.1
14426.2
14401.4
14384.1
14352.7
14290
14221.4
14147.3
14068.5
13986.1
13900.9
13813.3
13723.8
13632.7
13540.1
13446
13350.3
13252.6
13152.2
13048.1
12938.2
12818.5
12679.6
12493.2
12323.7
12285.7
12245.8
12210.3
12180.1
12155.4
12135.9
12121.3
12111.7
12106.9
14476.8
14472
14462.4
14448.3
14430
14408
14384
14361.6
14343.6
14332.5
14290
14210.6
14131
14049.3
13965.1
13878.4
13789.5
13698.7
13606.2
13512
13416.1
13318.3
13218.4
13115.6
13009.1
12897.2
12777.5
12645.4
12493
12306.8
12188.8
12169.6
12144.3
12118.7
12095.4
12075.4
12059.1
12046.9
12038.6
12034.5
14395.6
14390.8
14381.3
14367.3
14349.3
14328.8
14308.7
14291.1
14277.6
14269.6
14221.4
14131
14042.4
13953.6
13863.8
13772.7
13680.1
13585.9
13490.3
13393
13294
13192.9
13089.2
12982.4
12871.2
12754.3
12629.2
12492.7
12340.4
12167.7
12070.8
12059.5
12043.1
12024.9
12007.3
11991.6
11978.4
11968.3
11961.5
11958
14308.6
14303.5
14293.7
14279.6
14262.9
14245.6
14229.5
14215.6
14205
14198.9
14147.3
14049.3
13953.6
13858.8
13763.9
13668.4
13572
13474.6
13375.9
13275.7
13173.9
13069.9
12963.3
12853.4
12739.2
12619.4
12492.3
12355.9
12208
12047.8
11962
11954.7
11943.5
11930.5
11917.3
11905.1
11894.7
11886.5
11880.9
11878.1
14215.2
14209.7
14200
14187.5
14173.7
14159.8
14146.9
14135.8
14127.4
14122.5
14068.5
13965.1
13863.8
13763.9
13664.4
13565
13465.1
13364.5
13263
13160.2
13055.9
12949.6
12840.8
12728.8
12612.8
12491.9
12364.8
12230.4
12088
11937.7
11858.9
11853.7
11845.8
11836.3
11826.4
11816.9
11808.7
11802.2
11797.6
11795.3
14116.5
14111.8
14103.9
14094
14083
14072
14061.6
14052.7
14046
14041.9
13986.1
13878.4
13772.7
13668.4
13565
13461.9
13358.8
13255.4
13151.3
13046.3
12939.9
12831.7
12721.3
12608.1
12491.4
12370.4
12244.5
12113
11975.8
11833.3
11759.5
11755.5
11749.6
11742.5
11734.9
11727.6
11721
11715.8
11712.1
11710.2
14017.1
14013.8
14007.8
14000.1
13991.5
13982.6
13974.3
13967.1
13961.6
13958.2
13900.9
13789.5
13680.1
13572
13465.1
13358.8
13252.8
13146.9
13040.6
12933.6
12825.6
12716.1
12604.8
12491
12374.2
12254
12129.8
12001.4
11868.8
11732.5
11662.4
11659.3
11654.7
11649.2
11643.2
11637.4
11632.1
11627.8
11624.8
11623.3
13919.4
13916.9
13912.4
13906.4
13899.4
13892.3
13885.5
13879.6
13875
13872
13813.3
13698.7
13585.9
13474.6
13364.5
13255.4
13146.9
13038.7
12930.6
12822
12712.8
12602.5
12490.6
12376.8
12260.5
12141.5
12019.4
11894
11765.5
11634.3
11567.2
11564.5
11560.8
11556.3
11551.4
11546.6
11542.2
11538.6
11536.1
11534.8
13823.4
13821.4
13817.9
13813
13807.3
13801.3
13795.6
13790.6
13786.6
13783.9
13723.8
13606.2
13490.3
13375.9
13263
13151.3
13040.6
12930.6
12820.9
12711.2
12601.1
12490.3
12378.4
12264.9
12149.6
12032.1
11912.1
11789.7
11664.9
11538
11473.2
11470.9
11467.6
11463.7
11459.5
11455.3
11451.5
11448.3
11446.1
11444.9
13728.9
13727.3
13724.3
13720.1
13715.2
13710
13705
13700.4
13696.8
13694.3
13632.7
13512
13393
13275.7
13160.2
13046.3
12933.6
12822
12711.2
12600.7
12490.2
12379.3
12267.7
12155
12040.9
11925.1
11807.4
11687.8
11566.3
11443.1
11380.3
11378.1
11375.1
11371.5
11367.6
11363.7
11360.1
11357.1
11355
11353.9
13635.8
13634.4
13631.6
13627.8
13623.3
13618.5
13613.7
13609.4
13605.9
13603.4
13540.1
13416.1
13294
13173.9
13055.9
12939.9
12825.6
12712.8
12601.1
12490.2
12379.6
12269
12158.1
12046.5
11933.9
11820
11704.6
11587.7
11469.3
11349.4
11288.3
11286.2
11283.2
11279.6
11275.7
11271.7
11268.1
11265.1
11263
11261.8
13544
13542.6
13539.9
13536.2
13531.7
13526.8
13521.9
13517.5
13513.8
13511.3
13446
13318.3
13192.9
13069.9
12949.6
12831.7
12716.1
12602.5
12490.3
12379.3
12269
12159.1
12049.2
11939
11828.1
11716.3
11603.4
11489.3
11373.8
11256.9
11197.3
11195.1
11191.9
11188
11183.7
11179.5
11175.5
11172.2
11169.9
11168.6
13453.6
13452.1
13449.3
13445.3
13440.4
13435
13429.7
13424.8
13420.7
13417.9
13350.3
13218.4
13089.2
12963.3
12840.8
12721.3
12604.8
12490.6
12378.4
12267.7
12158.1
12049.2
11940.7
11832.1
11723.2
11613.8
11503.5
11392.1
11279.5
11165.6
11107.4
11104.9
11101.3
11096.8
11091.9
11086.9
11082.2
11078.4
11075.6
11074.2
13364.7
13363
13359.8
13355.2
13349.6
13343.3
13337
13331.1
13326.3
13323.1
13252.6
13115.6
12982.4
12853.4
12728.8
12608.1
12491
12376.8
12264.9
12155
12046.5
11939
11832.1
11725.5
11618.9
11512
11404.6
11296.2
11186.7
11075.7
11018.7
11015.9
11011.5
11006.1
11000
10993.9
10988.2
10983.5
10980.1
10978.3
13277.4
13275.4
13271.6
13266.1
13259.3
13251.7
13243.8
13236.5
13230.4
13226.4
13152.2
13009.1
12871.2
12739.2
12612.8
12491.4
12374.2
12260.5
12149.6
12040.9
11933.9
11828.1
11723.2
11618.9
11514.9
11410.9
11306.6
11201.5
11095.3
10987.4
10931.8
10928.4
10922.9
10916
10908.3
10900.4
10893.2
10887.2
10883
10880.7
13192.1
13189.7
13185
13178.3
13169.9
13160.3
13150.1
13140.5
13132.4
13127.2
13048.1
12897.2
12754.3
12619.4
12491.9
12370.4
12254
12141.5
12032.1
11925.1
11820
11716.3
11613.8
11512
11410.9
11310.1
11209.3
11108
11005.7
10901.4
10847.2
10842.9
10835.8
10826.7
10816.6
10806.4
10797.1
10789.3
10783.8
10780.9
13109.1
13106.2
13100.6
13092.3
13081.7
13069.3
13056
13042.9
13031.6
13024.2
12938.2
12777.5
12629.2
12492.3
12364.8
12244.5
12129.8
12019.4
11912.1
11807.4
11704.6
11603.4
11503.5
11404.6
11306.6
11209.3
11112.5
11015.6
10918
10818.2
10765.9
10760.2
10750.6
10738.4
10725
10711.6
10699.3
10689.2
10682
10678.2
13029.1
13025.6
13018.7
13008.5
12995.3
12979.4
12961.7
12943.4
12926.9
12915.6
12818.5
12645.4
12492.7
12355.9
12230.4
12113
12001.4
11894
11789.7
11687.8
11587.7
11489.3
11392.1
11296.2
11201.5
11108
11015.6
10924
10832.4
10739
10689.3
10681.3
10668
10651.4
10633.4
10615.6
10599.5
10586.2
10576.7
10571.8
12952.5
12948.4
12940.1
12927.8
12911.4
12891.3
12867.9
12842.3
12816.9
12797.7
12679.6
12493
12340.4
12208
12088
11975.8
11868.8
11765.5
11664.9
11566.3
11469.3
11373.8
11279.5
11186.7
11095.3
11005.7
10918
10832.4
10748.6
10664.8
10619.7
10607.8
10588.7
10565.9
10541.7
10518.1
10496.9
10479.4
10467.1
10460.6
12880.1
12875.2
12865.6
12851
12831.4
12806.6
12776.4
12740.8
12700.8
12662.8
12493.2
12306.8
12167.7
12047.8
11937.7
11833.3
11732.5
11634.3
11538
11443.1
11349.4
11256.9
11165.6
11075.7
10987.4
10901.4
10818.2
10739
10664.8
10596
10561.3
10541.3
10513.3
10481.8
10449.4
10418.4
10390.6
10367.8
10351.7
10343.3
12812.4
12807
12796
12779.3
12756.5
12727.2
12690.3
12643.7
12582.8
12493.3
12323.7
12188.8
12070.8
11962
11858.9
11759.5
11662.4
11567.2
11473.2
11380.3
11288.3
11197.3
11107.4
11018.7
10931.8
10847.2
10765.9
10689.3
10619.7
10561.3
10522.1
10483
10441.5
10398.7
10356
10315.6
10279.6
10250
10228.9
10217.9
12750.2
12744.2
12732.1
12713.6
12688.3
12655.4
12613.7
12561
12493.3
12403.8
12285.7
12169.6
12059.5
11954.7
11853.7
11755.5
11659.3
11564.5
11470.9
11378.1
11286.2
11195.1
11104.9
11015.9
10928.4
10842.9
10760.2
10681.3
10607.8
10541.3
10483
10427.1
10371.3
10315.5
10260.7
10208.9
10162.5
10124.2
10096.8
10082.4
12694.1
12687.6
12674.6
12654.7
12627.6
12592.4
12548.2
12493.4
12425.6
12342.9
12245.8
12144.3
12043.1
11943.5
11845.8
11749.6
11654.7
11560.8
11467.6
11375.1
11283.2
11191.9
11101.3
11011.5
10922.9
10835.8
10750.6
10668
10588.7
10513.3
10441.5
10371.3
10301.3
10231.5
10162.9
10097.6
10038.4
9988.92
9953
9934.03
12644.4
12637.6
12623.9
12603.1
12574.8
12538.5
12493.4
12438.5
12373
12296.4
12210.3
12118.7
12024.9
11930.5
11836.3
11742.5
11649.2
11556.3
11463.7
11371.5
11279.6
11188
11096.8
11006.1
10916
10826.7
10738.4
10651.4
10565.9
10481.8
10398.7
10315.5
10231.5
10146.9
10062.8
9981.36
9906.29
9842.35
9795.11
9769.82
12601.4
12594.4
12580.4
12559
12530.2
12493.4
12448.3
12394.3
12331.3
12259.5
12180.1
12095.4
12007.3
11917.3
11826.4
11734.9
11643.2
11551.4
11459.5
11367.6
11275.7
11183.7
11091.9
11000
10908.3
10816.6
10725
10633.4
10541.7
10449.4
10356
10260.7
10162.9
10062.8
9961.29
9861.02
9766.27
9683.44
9620.72
9586.5
12565.5
12558.4
12544.1
12522.5
12493.4
12456.6
12411.9
12359.2
12298.5
12230.3
12155.4
12075.4
11991.6
11905.1
11816.9
11727.6
11637.4
11546.6
11455.3
11363.7
11271.7
11179.5
11086.9
10993.9
10900.4
10806.4
10711.6
10615.6
10518.1
10418.4
10315.6
10208.9
10097.6
9981.36
9861.02
9738.97
9620.09
9512.65
9428.52
9381.34
12536.7
12529.5
12515.1
12493.4
12464.3
12427.8
12383.7
12332.1
12273.2
12207.6
12135.9
12059.1
11978.4
11894.7
11808.7
11721
11632.1
11542.2
11451.5
11360.1
11268.1
11175.5
11082.2
10988.2
10893.2
10797.1
10699.3
10599.5
10496.9
10390.6
10279.6
10162.5
10038.4
9906.29
9766.27
9620.09
9472.65
9333.85
9220.34
9154.19
12515.1
12507.8
12493.4
12471.7
12442.7
12406.4
12362.9
12312.2
12254.7
12190.9
12121.3
12046.9
11968.3
11886.5
11802.2
11715.8
11627.8
11538.6
11448.3
11357.1
11265.1
11172.2
11078.4
10983.5
10887.2
10789.3
10689.2
10586.2
10479.4
10367.8
10250
10124.2
9988.92
9842.35
9683.44
9512.65
9333.85
9157.64
9005.66
8912.31
12500.6
12493.4
12479
12457.3
12428.4
12392.4
12349.2
12299.2
12242.6
12179.9
12111.7
12038.6
11961.5
11880.9
11797.6
11712.1
11624.8
11536.1
11446.1
11355
11263
11169.9
11075.6
10980.1
10883
10783.8
10682
10576.7
10467.1
10351.7
10228.9
10096.8
9953
9795.11
9620.72
9428.52
9220.34
9005.66
8809.54
8680.95
12493.4
12486.2
12471.8
12450.1
12421.3
12385.4
12342.5
12292.8
12236.6
12174.5
12106.9
12034.5
11958
11878.1
11795.3
11710.2
11623.3
11534.8
11444.9
11353.9
11261.8
11168.6
11074.2
10978.3
10880.7
10780.9
10678.2
10571.8
10460.6
10343.3
10217.9
10082.4
9934.03
9769.82
9586.5
9381.34
9154.19
8912.31
8680.95
8519.55
15182.2
15135.8
15075.1
15011.9
14949
14886.4
14823.7
14759.9
14694.3
14626.2
14555
14479.8
14400.1
14315.1
14223.9
14125.9
14023.5
13922.3
13824.6
13729.4
13636.1
13544.2
13453.7
13364.7
13277.4
13192.1
13109.1
13029.1
12952.5
12880.1
12812.4
12750.2
12694.1
12644.4
12601.4
12565.5
12536.7
12515.1
12500.6
12493.4
15135.8
15101.2
15050.4
14993.8
14935.1
14875.5
14814.7
14752.4
14687.9
14620.7
14550.1
14475.3
14395.8
14310.6
14218.9
14120.5
14019
13919.3
13822.6
13727.8
13634.6
13542.8
13452.2
13363
13275.4
13189.7
13106.3
13025.6
12948.4
12875.2
12807
12744.2
12687.6
12637.6
12594.4
12558.4
12529.5
12507.8
12493.4
12486.2
15075.1
15050.4
15010.5
14962.4
14910
14854.9
14797.5
14737.8
14675.4
14609.8
14540.3
14466.4
14387.1
14301.7
14209.3
14111
14011.6
13914.3
13818.8
13724.7
13631.9
13540.1
13449.4
13359.8
13271.6
13185.1
13100.6
13018.7
12940.1
12865.6
12796
12732.1
12674.6
12623.9
12580.4
12544.1
12515.1
12493.4
12479
12471.8
15011.9
14993.8
14962.4
14922.2
14876.4
14826.5
14773.3
14717
14657.3
14593.9
14526.1
14453.2
14374.3
14288.4
14195.6
14099
14002.7
13907.7
13813.7
13720.5
13628
13536.3
13445.3
13355.2
13266.1
13178.3
13092.3
13008.5
12927.8
12851
12779.3
12713.6
12654.7
12603.1
12559
12522.5
12493.4
12471.7
12457.3
12450.1
14949
14935.1
14910
14876.4
14836.5
14791.8
14743.1
14690.7
14634.4
14573.7
14507.9
14436.2
14357.5
14271.3
14179.5
14086.3
13993.3
13900.4
13807.8
13715.5
13623.5
13531.8
13440.4
13349.6
13259.3
13169.9
13081.7
12995.3
12911.4
12831.4
12756.5
12688.3
12627.6
12574.8
12530.2
12493.4
12464.3
12442.7
12428.4
12421.3
14886.4
14875.5
14854.9
14826.5
14791.8
14752.1
14708
14659.7
14607.1
14549.6
14486.1
14415.6
14337.1
14251.8
14163.4
14074.1
13983.8
13893
13801.8
13710.2
13618.6
13526.9
13435.1
13343.3
13251.7
13160.3
13069.4
12979.4
12891.3
12806.6
12727.2
12655.4
12592.4
12538.5
12493.4
12456.6
12427.8
12406.4
12392.4
12385.4
14823.7
14814.7
14797.5
14773.3
14743.1
14708
14668.4
14624.5
14576
14522.1
14461.2
14391.9
14314.8
14233.3
14149.2
14063
13975.1
13886
13795.9
13705.1
13613.8
13522
13429.7
13337
13243.8
13150.2
13056
12961.7
12867.9
12776.4
12690.3
12613.7
12548.2
12493.4
12448.3
12411.9
12383.7
12362.9
12349.2
12342.5
14759.9
14752.4
14737.8
14717
14690.7
14659.7
14624.5
14585.1
14541.2
14491.4
14433.8
14367.4
14294.9
14217.9
14137.3
14053.7
13967.7
13879.9
13790.8
13700.6
13609.5
13517.5
13424.8
13331.2
13236.5
13140.5
13042.9
12943.4
12842.3
12740.8
12643.7
12561
12493.4
12438.5
12394.3
12359.2
12332.1
12312.2
12299.2
12292.8
14694.3
14687.9
14675.4
14657.3
14634.4
14607.1
14576
14541.2
14502.2
14457.9
14407
14347.3
14280
14206.7
14128.5
14046.7
13962.1
13875.2
13786.8
13696.9
13605.9
13513.9
13420.7
13326.3
13230.4
13132.4
13031.6
12926.9
12816.9
12700.8
12582.8
12493.3
12425.6
12373
12331.3
12298.5
12273.2
12254.7
12242.6
12236.6
14626.2
14620.7
14609.8
14593.9
14573.7
14549.6
14522.1
14491.4
14457.9
14423.2
14388.1
14335.3
14271.5
14200.2
14123.4
14042.5
13958.6
13872.2
13784.1
13694.4
13603.5
13511.3
13417.9
13323.1
13226.4
13127.2
13024.2
12915.6
12797.7
12662.8
12493.3
12403.8
12342.9
12296.4
12259.5
12230.3
12207.6
12190.9
12179.9
12174.5
14555
14550.1
14540.3
14526.1
14507.9
14486.1
14461.2
14433.8
14407
14388.1
14355.8
14292.1
14222.9
14148.3
14069.2
13986.6
13901.1
13813.4
13723.9
13632.7
13540.1
13446
13350.3
13252.6
13152.2
13048.1
12938.2
12818.5
12679.6
12493.2
12323.7
12285.7
12245.8
12210.3
12180.1
12155.4
12135.9
12121.3
12111.7
12106.9
14479.8
14475.3
14466.4
14453.2
14436.2
14415.6
14391.9
14367.4
14347.3
14335.3
14292.1
14212.1
14132
14050
13965.5
13878.7
13789.7
13698.9
13606.3
13512
13416.1
13318.3
13218.4
13115.6
13009.1
12897.2
12777.5
12645.4
12493
12306.8
12188.8
12169.6
12144.3
12118.7
12095.4
12075.4
12059.1
12046.9
12038.6
12034.5
14400.1
14395.8
14387.1
14374.3
14357.5
14337.1
14314.8
14294.9
14280
14271.5
14222.9
14132
14043
13954
13864.1
13772.9
13680.2
13586
13490.3
13393
13294
13192.9
13089.2
12982.4
12871.2
12754.3
12629.2
12492.7
12340.4
12167.7
12070.8
12059.5
12043.1
12024.9
12007.3
11991.6
11978.4
11968.3
11961.5
11958
14315.1
14310.6
14301.7
14288.4
14271.3
14251.8
14233.3
14217.9
14206.7
14200.2
14148.3
14050
13954
13859
13764.1
13668.5