/*--------------------------------*- C++ -*----------------------------------*\
| =========                 |                                                 |
| \\      /  F ield         | OpenFOAM: The Open Source CFD Toolbox           |
|  \\    /   O peration     | Version:  1.6                                   |
|   \\  /    A nd           | Web:      www.OpenFOAM.org                      |
|    \\/     M anipulation  |                                                 |
\*---------------------------------------------------------------------------*/
FoamFile
{
    version     2.0;
    format      ascii;
    class       volScalarField;
    location    "0.9";
    object      T;
}
// * * * * * * * * * * * * * * * * * * * * * * * * * * * * * * * * * * * * * //

dimensions      [0 0 0 0 0 0 0];

internalField   nonuniform List<scalar> 
40000
(
0.000709794
0.000709792
0.00070979
0.000709785
0.000709783
0.00070978
0.000709776
0.000709777
0.000709774
0.000709773
0.000709779
0.000709782
0.000709774
0.00070979
0.000709788
0.000709784
0.000709804
0.000709801
0.000709798
0.000709813
0.00213597
0.00213596
0.00213595
0.00213594
0.00213593
0.00213593
0.00213592
0.00213591
0.00213591
0.00213592
0.00213591
0.00213593
0.00213593
0.00213594
0.00213595
0.00213595
0.00213598
0.00213598
0.00213599
0.00213603
0.00358196
0.00358193
0.00358192
0.0035819
0.00358189
0.00358188
0.00358186
0.00358186
0.00358184
0.00358186
0.00358186
0.00358187
0.00358188
0.00358189
0.00358192
0.00358193
0.00358196
0.00358197
0.00358201
0.00358206
0.0050611
0.00506107
0.00506105
0.00506102
0.005061
0.00506099
0.00506097
0.00506096
0.00506095
0.00506097
0.00506097
0.00506099
0.00506099
0.00506102
0.00506105
0.00506107
0.00506111
0.00506113
0.00506117
0.00506126
0.00658702
0.00658698
0.00658696
0.00658692
0.00658689
0.00658688
0.00658685
0.00658684
0.00658683
0.00658685
0.00658685
0.00658687
0.00658688
0.00658691
0.00658695
0.00658698
0.00658704
0.00658707
0.00658709
0.0065872
0.00817364
0.0081736
0.00817357
0.00817352
0.00817349
0.00817347
0.00817344
0.00817343
0.00817342
0.00817344
0.00817345
0.00817347
0.00817348
0.00817352
0.00817356
0.0081736
0.00817368
0.00817373
0.00817375
0.00817384
0.00983535
0.00983529
0.00983527
0.00983521
0.00983517
0.00983515
0.00983511
0.0098351
0.00983509
0.00983511
0.00983512
0.00983515
0.00983516
0.0098352
0.00983526
0.00983531
0.0098354
0.00983546
0.00983549
0.00983558
0.011587
0.011587
0.011587
0.0115869
0.0115868
0.0115868
0.0115868
0.0115868
0.0115868
0.0115868
0.0115868
0.0115868
0.0115868
0.0115869
0.0115869
0.011587
0.0115871
0.0115872
0.0115872
0.0115873
0.0134443
0.0134442
0.0134442
0.0134441
0.0134441
0.013444
0.013444
0.013444
0.0134439
0.013444
0.013444
0.013444
0.013444
0.0134441
0.0134442
0.0134442
0.0134444
0.0134444
0.0134445
0.0134446
0.0154233
0.0154232
0.0154232
0.0154231
0.0154231
0.015423
0.015423
0.015423
0.015423
0.015423
0.015423
0.015423
0.0154231
0.0154231
0.0154232
0.0154233
0.0154234
0.0154235
0.0154236
0.0154237
0.0175413
0.0175412
0.0175412
0.0175411
0.017541
0.017541
0.017541
0.0175409
0.0175409
0.0175409
0.017541
0.017541
0.017541
0.0175411
0.0175412
0.0175413
0.0175414
0.0175415
0.0175416
0.0175417
0.0198163
0.0198163
0.0198162
0.0198161
0.0198161
0.019816
0.019816
0.019816
0.0198159
0.019816
0.019816
0.019816
0.019816
0.0198161
0.0198162
0.0198163
0.0198165
0.0198166
0.0198167
0.0198168
0.0222676
0.0222675
0.0222675
0.0222673
0.0222673
0.0222672
0.0222672
0.0222672
0.0222671
0.0222672
0.0222672
0.0222672
0.0222673
0.0222673
0.0222675
0.0222676
0.0222677
0.0222679
0.022268
0.0222681
0.0249154
0.0249153
0.0249153
0.0249151
0.0249151
0.024915
0.024915
0.0249149
0.0249149
0.024915
0.024915
0.024915
0.024915
0.0249151
0.0249153
0.0249154
0.0249156
0.0249157
0.0249158
0.0249159
0.0277814
0.0277813
0.0277813
0.0277811
0.0277811
0.027781
0.027781
0.0277809
0.0277809
0.027781
0.027781
0.027781
0.0277811
0.0277812
0.0277813
0.0277814
0.0277816
0.0277817
0.0277819
0.027782
0.0308888
0.0308887
0.0308886
0.0308885
0.0308884
0.0308884
0.0308883
0.0308883
0.0308883
0.0308883
0.0308883
0.0308884
0.0308884
0.0308885
0.0308886
0.0308888
0.030889
0.0308891
0.0308893
0.0308894
0.0342622
0.0342621
0.034262
0.0342619
0.0342618
0.0342617
0.0342617
0.0342616
0.0342616
0.0342617
0.0342617
0.0342617
0.0342618
0.0342619
0.034262
0.0342622
0.0342624
0.0342626
0.0342627
0.0342628
0.0379279
0.0379279
0.0379278
0.0379276
0.0379276
0.0379275
0.0379274
0.0379274
0.0379274
0.0379274
0.0379274
0.0379275
0.0379275
0.0379276
0.0379278
0.0379279
0.0379282
0.0379284
0.0379285
0.0379287
0.0419144
0.0419143
0.0419142
0.041914
0.041914
0.0419139
0.0419138
0.0419138
0.0419137
0.0419138
0.0419138
0.0419139
0.0419139
0.041914
0.0419142
0.0419143
0.0419146
0.0419148
0.041915
0.0419151
0.0462516
0.0462515
0.0462515
0.0462513
0.0462512
0.0462511
0.046251
0.046251
0.046251
0.046251
0.046251
0.0462511
0.0462511
0.0462512
0.0462514
0.0462516
0.0462519
0.0462521
0.0462522
0.0462524
0.0509721
0.050972
0.0509719
0.0509717
0.0509716
0.0509716
0.0509715
0.0509714
0.0509714
0.0509714
0.0509715
0.0509715
0.0509716
0.0509717
0.0509719
0.050972
0.0509723
0.0509725
0.0509727
0.0509729
0.0561104
0.0561103
0.0561103
0.0561101
0.05611
0.0561099
0.0561098
0.0561097
0.0561097
0.0561097
0.0561098
0.0561098
0.0561099
0.05611
0.0561102
0.0561104
0.0561107
0.0561109
0.0561111
0.0561113
0.0617037
0.0617036
0.0617036
0.0617034
0.0617033
0.0617032
0.0617031
0.061703
0.061703
0.061703
0.061703
0.0617031
0.0617032
0.0617033
0.0617035
0.0617037
0.061704
0.0617042
0.0617045
0.0617047
0.0677918
0.0677917
0.0677917
0.0677914
0.0677913
0.0677912
0.0677911
0.0677911
0.067791
0.0677911
0.0677911
0.0677911
0.0677912
0.0677913
0.0677915
0.0677917
0.0677921
0.0677923
0.0677926
0.0677928
0.0744171
0.074417
0.074417
0.0744167
0.0744166
0.0744165
0.0744164
0.0744164
0.0744163
0.0744164
0.0744164
0.0744164
0.0744165
0.0744166
0.0744168
0.0744171
0.0744174
0.0744177
0.0744179
0.0744181
0.0816253
0.0816252
0.0816251
0.0816249
0.0816247
0.0816246
0.0816245
0.0816245
0.0816244
0.0816245
0.0816245
0.0816245
0.0816246
0.0816247
0.0816249
0.0816252
0.0816256
0.0816258
0.0816261
0.0816263
0.0894648
0.0894647
0.0894647
0.0894644
0.0894643
0.0894642
0.089464
0.089464
0.0894639
0.089464
0.089464
0.0894641
0.0894641
0.0894642
0.0894645
0.0894647
0.0894652
0.0894654
0.0894657
0.0894659
0.0979879
0.0979878
0.0979878
0.0979874
0.0979873
0.0979872
0.097987
0.097987
0.0979869
0.097987
0.097987
0.097987
0.0979871
0.0979872
0.0979875
0.0979877
0.0979882
0.0979885
0.0979887
0.097989
0.10725
0.10725
0.10725
0.107249
0.107249
0.107249
0.107249
0.107249
0.107249
0.107249
0.107249
0.107249
0.107249
0.107249
0.107249
0.10725
0.10725
0.10725
0.107251
0.107251
0.11731
0.11731
0.11731
0.11731
0.117309
0.117309
0.117309
0.117309
0.117309
0.117309
0.117309
0.117309
0.117309
0.117309
0.11731
0.11731
0.11731
0.117311
0.117311
0.117311
0.128231
0.128231
0.128231
0.128231
0.128231
0.128231
0.12823
0.12823
0.12823
0.12823
0.12823
0.12823
0.12823
0.128231
0.128231
0.128231
0.128232
0.128232
0.128232
0.128233
0.140081
0.140081
0.140081
0.140081
0.140081
0.140081
0.14008
0.14008
0.14008
0.14008
0.14008
0.14008
0.14008
0.14008
0.140081
0.140081
0.140082
0.140082
0.140082
0.140083
0.152931
0.152931
0.152931
0.152931
0.152931
0.15293
0.15293
0.15293
0.15293
0.15293
0.15293
0.15293
0.15293
0.15293
0.152931
0.152931
0.152932
0.152932
0.152932
0.152933
0.166857
0.166857
0.166857
0.166857
0.166856
0.166856
0.166856
0.166856
0.166856
0.166856
0.166856
0.166856
0.166856
0.166856
0.166856
0.166857
0.166857
0.166858
0.166858
0.166859
0.181939
0.181939
0.181939
0.181939
0.181939
0.181939
0.181938
0.181938
0.181938
0.181938
0.181938
0.181938
0.181938
0.181938
0.181939
0.181939
0.18194
0.18194
0.181941
0.181941
0.198264
0.198264
0.198264
0.198263
0.198263
0.198263
0.198263
0.198262
0.198262
0.198262
0.198262
0.198262
0.198262
0.198263
0.198263
0.198263
0.198264
0.198264
0.198265
0.198265
0.21592
0.21592
0.21592
0.21592
0.21592
0.215919
0.215919
0.215919
0.215919
0.215919
0.215919
0.215919
0.215919
0.215919
0.21592
0.21592
0.215921
0.215921
0.215922
0.215922
0.235005
0.235005
0.235005
0.235004
0.235004
0.235004
0.235004
0.235004
0.235004
0.235004
0.235004
0.235004
0.235004
0.235004
0.235004
0.235005
0.235005
0.235006
0.235006
0.235007
0.255619
0.255619
0.255619
0.255618
0.255618
0.255618
0.255617
0.255617
0.255617
0.255617
0.255617
0.255617
0.255617
0.255617
0.255618
0.255618
0.255619
0.25562
0.25562
0.255621
0.277868
0.277868
0.277868
0.277867
0.277867
0.277867
0.277866
0.277866
0.277866
0.277866
0.277866
0.277866
0.277866
0.277866
0.277867
0.277867
0.277868
0.277869
0.277869
0.27787
0.301864
0.301864
0.301864
0.301863
0.301863
0.301863
0.301863
0.301863
0.301862
0.301862
0.301862
0.301862
0.301862
0.301863
0.301863
0.301864
0.301865
0.301865
0.301866
0.301866
0.327726
0.327726
0.327726
0.327725
0.327725
0.327725
0.327724
0.327724
0.327724
0.327724
0.327724
0.327724
0.327724
0.327724
0.327725
0.327725
0.327726
0.327727
0.327727
0.327728
0.355576
0.355576
0.355576
0.355575
0.355575
0.355575
0.355574
0.355574
0.355574
0.355574
0.355574
0.355574
0.355574
0.355574
0.355575
0.355575
0.355576
0.355577
0.355577
0.355578
0.385544
0.385544
0.385544
0.385543
0.385543
0.385543
0.385542
0.385542
0.385542
0.385542
0.385542
0.385542
0.385542
0.385542
0.385543
0.385543
0.385544
0.385545
0.385546
0.385546
0.417766
0.417766
0.417766
0.417765
0.417765
0.417764
0.417764
0.417764
0.417763
0.417764
0.417763
0.417764
0.417763
0.417764
0.417764
0.417765
0.417766
0.417767
0.417767
0.417768
0.452382
0.452382
0.452382
0.452381
0.452381
0.45238
0.45238
0.45238
0.45238
0.45238
0.452379
0.45238
0.452379
0.45238
0.45238
0.452381
0.452382
0.452383
0.452384
0.452384
0.48954
0.48954
0.48954
0.489539
0.489539
0.489538
0.489538
0.489538
0.489537
0.489537
0.489537
0.489537
0.489537
0.489537
0.489538
0.489539
0.48954
0.489541
0.489541
0.489542
0.529392
0.529392
0.529392
0.529391
0.529391
0.529391
0.52939
0.52939
0.52939
0.52939
0.52939
0.52939
0.52939
0.52939
0.52939
0.529391
0.529392
0.529393
0.529394
0.529395
0.572098
0.572098
0.572098
0.572097
0.572097
0.572097
0.572096
0.572096
0.572095
0.572096
0.572095
0.572095
0.572095
0.572095
0.572096
0.572097
0.572098
0.572099
0.5721
0.572101
0.617822
0.617821
0.617821
0.61782
0.61782
0.61782
0.617819
0.617819
0.617819
0.617819
0.617819
0.617819
0.617818
0.617819
0.617819
0.61782
0.617821
0.617822
0.617823
0.617824
0.666732
0.666732
0.666732
0.666731
0.666731
0.66673
0.66673
0.66673
0.666729
0.666729
0.666729
0.666729
0.666729
0.666729
0.66673
0.66673
0.666732
0.666733
0.666734
0.666735
0.719005
0.719004
0.719005
0.719003
0.719003
0.719003
0.719002
0.719002
0.719002
0.719002
0.719001
0.719001
0.719001
0.719001
0.719002
0.719003
0.719004
0.719005
0.719006
0.719007
0.774819
0.774818
0.774819
0.774817
0.774817
0.774817
0.774816
0.774816
0.774816
0.774816
0.774815
0.774815
0.774815
0.774815
0.774816
0.774817
0.774818
0.774819
0.77482
0.774821
0.834359
0.834358
0.834359
0.834357
0.834357
0.834357
0.834356
0.834356
0.834355
0.834355
0.834355
0.834355
0.834355
0.834355
0.834356
0.834356
0.834358
0.834359
0.83436
0.834361
0.897812
0.897812
0.897812
0.897811
0.89781
0.89781
0.897809
0.897809
0.897809
0.897809
0.897808
0.897808
0.897808
0.897808
0.897809
0.89781
0.897811
0.897812
0.897813
0.897815
0.965371
0.965371
0.965371
0.96537
0.965369
0.965369
0.965368
0.965368
0.965368
0.965368
0.965367
0.965367
0.965367
0.965367
0.965368
0.965368
0.96537
0.965371
0.965372
0.965373
1.03723
1.03723
1.03723
1.03723
1.03723
1.03723
1.03723
1.03723
1.03723
1.03723
1.03723
1.03723
1.03723
1.03723
1.03723
1.03723
1.03723
1.03723
1.03723
1.03723
1.11359
1.11359
1.11359
1.11358
1.11358
1.11358
1.11358
1.11358
1.11358
1.11358
1.11358
1.11358
1.11358
1.11358
1.11358
1.11358
1.11358
1.11359
1.11359
1.11359
1.19464
1.19464
1.19464
1.19464
1.19464
1.19464
1.19463
1.19463
1.19463
1.19463
1.19463
1.19463
1.19463
1.19463
1.19463
1.19463
1.19464
1.19464
1.19464
1.19464
1.28058
1.28058
1.28058
1.28058
1.28058
1.28058
1.28058
1.28058
1.28058
1.28058
1.28058
1.28058
1.28058
1.28058
1.28058
1.28058
1.28058
1.28058
1.28058
1.28059
1.37162
1.37162
1.37163
1.37162
1.37162
1.37162
1.37162
1.37162
1.37162
1.37162
1.37162
1.37162
1.37162
1.37162
1.37162
1.37162
1.37162
1.37162
1.37163
1.37163
1.46796
1.46796
1.46796
1.46796
1.46796
1.46796
1.46796
1.46796
1.46796
1.46796
1.46795
1.46795
1.46795
1.46795
1.46795
1.46795
1.46796
1.46796
1.46796
1.46796
1.56978
1.56978
1.56978
1.56978
1.56978
1.56978
1.56978
1.56978
1.56978
1.56978
1.56978
1.56978
1.56978
1.56978
1.56978
1.56978
1.56978
1.56978
1.56978
1.56978
1.67729
1.67729
1.67729
1.67729
1.67729
1.67729
1.67729
1.67729
1.67729
1.67729
1.67728
1.67728
1.67728
1.67728
1.67728
1.67728
1.67729
1.67729
1.67729
1.67729
1.79067
1.79067
1.79067
1.79067
1.79067
1.79067
1.79067
1.79067
1.79066
1.79066
1.79066
1.79066
1.79066
1.79066
1.79066
1.79066
1.79066
1.79067
1.79067
1.79067
1.9101
1.9101
1.9101
1.9101
1.9101
1.9101
1.9101
1.9101
1.9101
1.9101
1.9101
1.9101
1.9101
1.9101
1.9101
1.9101
1.9101
1.9101
1.9101
1.9101
2.03577
2.03577
2.03577
2.03577
2.03577
2.03577
2.03577
2.03577
2.03577
2.03577
2.03577
2.03577
2.03576
2.03576
2.03576
2.03576
2.03577
2.03577
2.03577
2.03577
2.16784
2.16784
2.16784
2.16784
2.16784
2.16784
2.16784
2.16784
2.16784
2.16784
2.16784
2.16784
2.16783
2.16783
2.16783
2.16783
2.16784
2.16784
2.16784
2.16784
2.30647
2.30647
2.30647
2.30647
2.30647
2.30647
2.30647
2.30647
2.30647
2.30647
2.30647
2.30647
2.30646
2.30646
2.30646
2.30646
2.30647
2.30647
2.30647
2.30647
2.45181
2.45181
2.45181
2.45181
2.45181
2.45181
2.45181
2.45181
2.45181
2.45181
2.45181
2.45181
2.4518
2.4518
2.4518
2.4518
2.4518
2.45181
2.45181
2.45181
2.604
2.604
2.604
2.604
2.604
2.604
2.60399
2.60399
2.60399
2.60399
2.60399
2.60399
2.60399
2.60399
2.60399
2.60399
2.60399
2.60399
2.60399
2.60399
2.76315
2.76315
2.76315
2.76315
2.76315
2.76315
2.76315
2.76315
2.76314
2.76314
2.76314
2.76314
2.76314
2.76314
2.76314
2.76314
2.76314
2.76314
2.76314
2.76314
2.92937
2.92937
2.92937
2.92937
2.92937
2.92937
2.92937
2.92937
2.92937
2.92937
2.92936
2.92936
2.92936
2.92936
2.92936
2.92936
2.92936
2.92936
2.92936
2.92936
3.10275
3.10275
3.10276
3.10275
3.10275
3.10275
3.10275
3.10275
3.10275
3.10275
3.10275
3.10275
3.10275
3.10274
3.10274
3.10274
3.10274
3.10275
3.10275
3.10275
3.28337
3.28337
3.28337
3.28337
3.28337
3.28337
3.28337
3.28337
3.28337
3.28337
3.28336
3.28336
3.28336
3.28336
3.28336
3.28336
3.28336
3.28336
3.28336
3.28336
3.47127
3.47127
3.47127
3.47127
3.47127
3.47127
3.47127
3.47126
3.47126
3.47126
3.47126
3.47126
3.47126
3.47126
3.47125
3.47125
3.47126
3.47126
3.47126
3.47126
3.66647
3.66647
3.66647
3.66647
3.66647
3.66647
3.66647
3.66647
3.66647
3.66647
3.66647
3.66646
3.66646
3.66646
3.66646
3.66646
3.66646
3.66646
3.66646
3.66646
3.86899
3.86899
3.86899
3.86899
3.86899
3.86899
3.86899
3.86899
3.86899
3.86899
3.86899
3.86899
3.86898
3.86898
3.86898
3.86898
3.86898
3.86898
3.86898
3.86898
4.07881
4.07881
4.07881
4.07881
4.07881
4.07881
4.07881
4.07881
4.07881
4.07881
4.0788
4.0788
4.0788
4.0788
4.0788
4.0788
4.0788
4.0788
4.0788
4.0788
4.29588
4.29588
4.29588
4.29588
4.29588
4.29588
4.29588
4.29588
4.29588
4.29587
4.29587
4.29587
4.29587
4.29587
4.29587
4.29587
4.29587
4.29587
4.29587
4.29587
4.52013
4.52013
4.52013
4.52013
4.52013
4.52013
4.52013
4.52012
4.52012
4.52012
4.52012
4.52012
4.52012
4.52012
4.52011
4.52011
4.52011
4.52011
4.52012
4.52012
4.75146
4.75146
4.75146
4.75146
4.75146
4.75146
4.75146
4.75145
4.75145
4.75145
4.75145
4.75145
4.75145
4.75145
4.75144
4.75144
4.75144
4.75144
4.75145
4.75145
4.98974
4.98974
4.98974
4.98974
4.98974
4.98974
4.98974
4.98974
4.98974
4.98974
4.98974
4.98973
4.98973
4.98973
4.98973
4.98973
4.98973
4.98973
4.98973
4.98973
5.23482
5.23482
5.23482
5.23482
5.23482
5.23482
5.23482
5.23482
5.23482
5.23482
5.23482
5.23482
5.23482
5.23482
5.23481
5.23481
5.23481
5.23481
5.23481
5.23481
5.48652
5.48652
5.48652
5.48652
5.48652
5.48652
5.48652
5.48652
5.48652
5.48652
5.48652
5.48652
5.48651
5.48651
5.48651
5.48651
5.48651
5.48651
5.48651
5.48651
5.74462
5.74462
5.74462
5.74462
5.74462
5.74462
5.74462
5.74462
5.74462
5.74462
5.74462
5.74461
5.74461
5.74461
5.74461
5.74461
5.74461
5.74461
5.74461
5.74461
6.00887
6.00887
6.00887
6.00887
6.00887
6.00887
6.00887
6.00887
6.00887
6.00887
6.00887
6.00887
6.00887
6.00886
6.00886
6.00886
6.00886
6.00886
6.00886
6.00886
6.27901
6.27901
6.27901
6.27901
6.27901
6.27901
6.27901
6.27901
6.27901
6.27901
6.279
6.279
6.279
6.279
6.279
6.279
6.279
6.279
6.279
6.279
6.55472
6.55472
6.55472
6.55472
6.55472
6.55472
6.55472
6.55472
6.55472
6.55472
6.55472
6.55472
6.55472
6.55472
6.55472
6.55472
6.55472
6.55472
6.55472
6.55472
6.83569
6.83569
6.83569
6.83569
6.83569
6.83569
6.83569
6.83569
6.83569
6.83569
6.83569
6.83569
6.83569
6.83569
6.83569
6.83569
6.83569
6.83569
6.83569
6.83569
7.12156
7.12156
7.12156
7.12156
7.12156
7.12156
7.12156
7.12156
7.12156
7.12156
7.12156
7.12156
7.12155
7.12155
7.12155
7.12155
7.12155
7.12155
7.12155
7.12155
7.41194
7.41194
7.41194
7.41194
7.41194
7.41194
7.41194
7.41194
7.41194
7.41194
7.41194
7.41193
7.41193
7.41193
7.41193
7.41193
7.41193
7.41193
7.41193
7.41193
7.70642
7.70642
7.70642
7.70642
7.70642
7.70642
7.70643
7.70643
7.70643
7.70642
7.70642
7.70642
7.70642
7.70642
7.70642
7.70642
7.70642
7.70642
7.70642
7.70642
8.00459
8.00459
8.00459
8.00459
8.00459
8.00459
8.00459
8.00459
8.00459
8.00459
8.00459
8.00459
8.00459
8.00459
8.00459
8.00459
8.00459
8.00459
8.00459
8.00459
8.30599
8.30599
8.306
8.306
8.306
8.306
8.306
8.306
8.306
8.306
8.306
8.30599
8.30599
8.30599
8.30599
8.30599
8.30599
8.30599
8.30599
8.30599
8.61016
8.61016
8.61016
8.61016
8.61017
8.61017
8.61017
8.61017
8.61017
8.61017
8.61017
8.61016
8.61016
8.61016
8.61016
8.61016
8.61016
8.61016
8.61016
8.61016
8.91662
8.91662
8.91662
8.91662
8.91662
8.91662
8.91662
8.91662
8.91662
8.91662
8.91662
8.91662
8.91662
8.91662
8.91662
8.91662
8.91662
8.91662
8.91662
8.91662
9.22487
9.22487
9.22487
9.22487
9.22487
9.22487
9.22487
9.22487
9.22487
9.22487
9.22487
9.22487
9.22487
9.22487
9.22487
9.22487
9.22487
9.22487
9.22487
9.22487
9.5344
9.5344
9.5344
9.5344
9.5344
9.5344
9.5344
9.5344
9.53441
9.53441
9.5344
9.5344
9.5344
9.5344
9.5344
9.5344
9.5344
9.5344
9.5344
9.53441
9.84471
9.84472
9.84472
9.84472
9.84472
9.84472
9.84472
9.84472
9.84472
9.84472
9.84472
9.84472
9.84472
9.84472
9.84472
9.84472
9.84472
9.84472
9.84472
9.84472
0.000709792
0.00070979
0.000709785
0.000709783
0.000709777
0.000709776
0.000709775
0.00070977
0.00070977
0.000709774
0.000709774
0.000709774
0.000709779
0.000709782
0.000709778
0.00070979
0.000709798
0.000709791
0.000709799
0.000709813
0.00213596
0.00213596
0.00213594
0.00213593
0.00213592
0.00213591
0.0021359
0.0021359
0.00213589
0.0021359
0.00213591
0.00213591
0.00213592
0.00213592
0.00213593
0.00213595
0.00213597
0.00213596
0.00213599
0.002136
0.00358193
0.00358192
0.0035819
0.00358189
0.00358187
0.00358186
0.00358184
0.00358183
0.00358183
0.00358184
0.00358185
0.00358185
0.00358186
0.00358188
0.00358189
0.00358192
0.00358194
0.00358195
0.00358198
0.00358199
0.00506107
0.00506106
0.00506103
0.00506101
0.00506098
0.00506097
0.00506094
0.00506093
0.00506093
0.00506094
0.00506095
0.00506096
0.00506097
0.005061
0.00506102
0.00506106
0.00506109
0.00506112
0.00506115
0.00506117
0.00658698
0.00658696
0.00658693
0.0065869
0.00658687
0.00658684
0.00658682
0.00658681
0.00658681
0.00658682
0.00658683
0.00658684
0.00658686
0.00658689
0.00658691
0.00658696
0.00658702
0.00658706
0.00658709
0.00658713
0.0081736
0.00817357
0.00817354
0.0081735
0.00817346
0.00817343
0.00817341
0.00817339
0.00817339
0.0081734
0.00817342
0.00817343
0.00817345
0.00817348
0.00817352
0.00817358
0.00817365
0.0081737
0.00817374
0.0081738
0.00983529
0.00983526
0.00983522
0.00983518
0.00983514
0.00983511
0.00983507
0.00983506
0.00983506
0.00983507
0.00983509
0.0098351
0.00983513
0.00983517
0.00983521
0.00983529
0.00983536
0.00983543
0.00983549
0.00983555
0.011587
0.0115869
0.0115869
0.0115869
0.0115868
0.0115868
0.0115867
0.0115867
0.0115867
0.0115867
0.0115867
0.0115868
0.0115868
0.0115868
0.0115869
0.011587
0.0115871
0.0115871
0.0115872
0.0115873
0.0134442
0.0134442
0.0134441
0.0134441
0.013444
0.013444
0.0134439
0.0134439
0.0134439
0.0134439
0.0134439
0.013444
0.013444
0.013444
0.0134441
0.0134442
0.0134443
0.0134444
0.0134445
0.0134446
0.0154232
0.0154232
0.0154231
0.0154231
0.015423
0.015423
0.0154229
0.0154229
0.0154229
0.0154229
0.015423
0.015423
0.015423
0.0154231
0.0154231
0.0154232
0.0154234
0.0154235
0.0154236
0.0154237
0.0175412
0.0175412
0.0175411
0.0175411
0.017541
0.0175409
0.0175409
0.0175409
0.0175409
0.0175409
0.0175409
0.0175409
0.017541
0.017541
0.0175411
0.0175412
0.0175414
0.0175415
0.0175416
0.0175417
0.0198163
0.0198162
0.0198161
0.0198161
0.019816
0.019816
0.0198159
0.0198159
0.0198159
0.0198159
0.0198159
0.0198159
0.019816
0.0198161
0.0198161
0.0198163
0.0198164
0.0198165
0.0198167
0.0198168
0.0222675
0.0222674
0.0222674
0.0222673
0.0222672
0.0222672
0.0222671
0.0222671
0.0222671
0.0222671
0.0222671
0.0222672
0.0222672
0.0222673
0.0222674
0.0222675
0.0222677
0.0222678
0.022268
0.0222681
0.0249153
0.0249152
0.0249152
0.0249151
0.024915
0.024915
0.0249149
0.0249149
0.0249149
0.0249149
0.0249149
0.0249149
0.024915
0.0249151
0.0249152
0.0249153
0.0249155
0.0249156
0.0249158
0.0249159
0.0277813
0.0277813
0.0277812
0.0277811
0.027781
0.027781
0.0277809
0.0277809
0.0277809
0.0277809
0.0277809
0.0277809
0.027781
0.0277811
0.0277812
0.0277814
0.0277815
0.0277817
0.0277819
0.027782
0.0308887
0.0308886
0.0308886
0.0308885
0.0308884
0.0308883
0.0308882
0.0308882
0.0308882
0.0308882
0.0308883
0.0308883
0.0308883
0.0308884
0.0308885
0.0308887
0.0308889
0.0308891
0.0308893
0.0308894
0.0342621
0.034262
0.0342619
0.0342618
0.0342617
0.0342617
0.0342616
0.0342616
0.0342616
0.0342616
0.0342616
0.0342616
0.0342617
0.0342618
0.0342619
0.0342621
0.0342623
0.0342625
0.0342627
0.0342628
0.0379279
0.0379278
0.0379277
0.0379276
0.0379275
0.0379274
0.0379273
0.0379273
0.0379273
0.0379273
0.0379274
0.0379274
0.0379275
0.0379276
0.0379277
0.0379279
0.0379281
0.0379283
0.0379285
0.0379287
0.0419143
0.0419142
0.0419141
0.041914
0.0419139
0.0419138
0.0419137
0.0419137
0.0419137
0.0419137
0.0419137
0.0419138
0.0419138
0.0419139
0.0419141
0.0419143
0.0419145
0.0419147
0.0419149
0.0419151
0.0462515
0.0462515
0.0462514
0.0462512
0.0462511
0.046251
0.046251
0.0462509
0.0462509
0.0462509
0.046251
0.046251
0.0462511
0.0462512
0.0462513
0.0462515
0.0462518
0.046252
0.0462522
0.0462524
0.050972
0.0509719
0.0509718
0.0509717
0.0509716
0.0509715
0.0509714
0.0509713
0.0509713
0.0509714
0.0509714
0.0509714
0.0509715
0.0509716
0.0509717
0.050972
0.0509723
0.0509725
0.0509727
0.0509729
0.0561103
0.0561103
0.0561102
0.05611
0.0561099
0.0561098
0.0561097
0.0561096
0.0561096
0.0561097
0.0561097
0.0561097
0.0561098
0.0561099
0.0561101
0.0561103
0.0561106
0.0561108
0.0561111
0.0561113
0.0617036
0.0617036
0.0617035
0.0617033
0.0617032
0.0617031
0.061703
0.0617029
0.0617029
0.061703
0.061703
0.061703
0.0617031
0.0617032
0.0617034
0.0617037
0.061704
0.0617042
0.0617045
0.0617046
0.0677917
0.0677916
0.0677916
0.0677914
0.0677912
0.0677911
0.067791
0.067791
0.067791
0.067791
0.067791
0.067791
0.0677911
0.0677912
0.0677914
0.0677917
0.067792
0.0677922
0.0677926
0.0677928
0.074417
0.074417
0.0744169
0.0744167
0.0744166
0.0744164
0.0744163
0.0744163
0.0744163
0.0744163
0.0744163
0.0744163
0.0744164
0.0744165
0.0744167
0.074417
0.0744174
0.0744176
0.0744179
0.0744181
0.0816252
0.0816251
0.081625
0.0816249
0.0816247
0.0816246
0.0816244
0.0816244
0.0816243
0.0816244
0.0816244
0.0816244
0.0816245
0.0816246
0.0816248
0.0816251
0.0816255
0.0816258
0.0816261
0.0816263
0.0894647
0.0894647
0.0894646
0.0894644
0.0894642
0.0894641
0.089464
0.0894639
0.0894639
0.0894639
0.0894639
0.0894639
0.089464
0.0894642
0.0894643
0.0894647
0.0894651
0.0894653
0.0894657
0.0894659
0.0979878
0.0979877
0.0979876
0.0979874
0.0979872
0.0979871
0.097987
0.0979869
0.0979869
0.0979869
0.0979869
0.0979869
0.097987
0.0979871
0.0979873
0.0979877
0.0979881
0.0979884
0.0979888
0.097989
0.10725
0.10725
0.10725
0.107249
0.107249
0.107249
0.107249
0.107249
0.107249
0.107249
0.107249
0.107249
0.107249
0.107249
0.107249
0.10725
0.10725
0.10725
0.107251
0.107251
0.11731
0.11731
0.11731
0.11731
0.117309
0.117309
0.117309
0.117309
0.117309
0.117309
0.117309
0.117309
0.117309
0.117309
0.117309
0.11731
0.11731
0.117311
0.117311
0.117311
0.128231
0.128231
0.128231
0.128231
0.128231
0.128231
0.12823
0.12823
0.12823
0.12823
0.12823
0.12823
0.12823
0.128231
0.128231
0.128231
0.128232
0.128232
0.128232
0.128233
0.140081
0.140081
0.140081
0.140081
0.140081
0.14008
0.14008
0.14008
0.14008
0.14008
0.14008
0.14008
0.14008
0.14008
0.140081
0.140081
0.140082
0.140082
0.140082
0.140083
0.152931
0.152931
0.152931
0.152931
0.152931
0.15293
0.15293
0.15293
0.15293
0.15293
0.15293
0.15293
0.15293
0.15293
0.15293
0.152931
0.152932
0.152932
0.152932
0.152933
0.166857
0.166857
0.166857
0.166857
0.166856
0.166856
0.166856
0.166856
0.166856
0.166856
0.166856
0.166856
0.166856
0.166856
0.166856
0.166857
0.166857
0.166858
0.166858
0.166859
0.181939
0.181939
0.181939
0.181939
0.181939
0.181938
0.181938
0.181938
0.181938
0.181938
0.181938
0.181938
0.181938
0.181938
0.181939
0.181939
0.18194
0.18194
0.181941
0.181941
0.198264
0.198264
0.198264
0.198263
0.198263
0.198263
0.198262
0.198262
0.198262
0.198262
0.198262
0.198262
0.198262
0.198263
0.198263
0.198263
0.198264
0.198264
0.198265
0.198265
0.21592
0.21592
0.21592
0.21592
0.21592
0.215919
0.215919
0.215919
0.215919
0.215919
0.215919
0.215919
0.215919
0.215919
0.215919
0.21592
0.215921
0.215921
0.215922
0.215922
0.235005
0.235005
0.235005
0.235005
0.235004
0.235004
0.235004
0.235004
0.235004
0.235004
0.235004
0.235003
0.235004
0.235004
0.235004
0.235005
0.235005
0.235006
0.235007
0.235007
0.255619
0.255619
0.255619
0.255618
0.255618
0.255618
0.255617
0.255617
0.255617
0.255617
0.255617
0.255617
0.255617
0.255617
0.255618
0.255618
0.255619
0.25562
0.25562
0.255621
0.277868
0.277868
0.277868
0.277867
0.277867
0.277867
0.277866
0.277866
0.277866
0.277866
0.277866
0.277866
0.277866
0.277866
0.277867
0.277867
0.277868
0.277869
0.277869
0.27787
0.301864
0.301864
0.301864
0.301864
0.301863
0.301863
0.301863
0.301862
0.301862
0.301862
0.301862
0.301862
0.301862
0.301863
0.301863
0.301864
0.301864
0.301865
0.301866
0.301866
0.327726
0.327726
0.327726
0.327725
0.327725
0.327724
0.327724
0.327724
0.327724
0.327724
0.327724
0.327724
0.327724
0.327724
0.327724
0.327725
0.327726
0.327727
0.327727
0.327728
0.355576
0.355576
0.355576
0.355575
0.355575
0.355575
0.355574
0.355574
0.355574
0.355574
0.355574
0.355574
0.355574
0.355574
0.355574
0.355575
0.355576
0.355577
0.355578
0.355578
0.385544
0.385544
0.385544
0.385543
0.385543
0.385543
0.385542
0.385542
0.385542
0.385542
0.385542
0.385542
0.385542
0.385542
0.385542
0.385543
0.385544
0.385545
0.385546
0.385546
0.417766
0.417766
0.417765
0.417765
0.417764
0.417764
0.417764
0.417764
0.417763
0.417763
0.417763
0.417763
0.417763
0.417764
0.417764
0.417765
0.417766
0.417767
0.417768
0.417768
0.452382
0.452382
0.452382
0.452381
0.452381
0.45238
0.45238
0.45238
0.45238
0.45238
0.452379
0.452379
0.452379
0.45238
0.45238
0.452381
0.452382
0.452383
0.452384
0.452384
0.48954
0.48954
0.489539
0.489539
0.489538
0.489538
0.489538
0.489537
0.489537
0.489537
0.489537
0.489537
0.489537
0.489537
0.489538
0.489539
0.48954
0.489541
0.489542
0.489542
0.529392
0.529392
0.529392
0.529391
0.529391
0.529391
0.52939
0.52939
0.52939
0.52939
0.52939
0.529389
0.529389
0.52939
0.52939
0.529391
0.529392
0.529393
0.529394
0.529395
0.572098
0.572098
0.572098
0.572097
0.572097
0.572096
0.572096
0.572096
0.572095
0.572095
0.572095
0.572095
0.572095
0.572095
0.572096
0.572097
0.572098
0.572099
0.5721
0.572101
0.617821
0.617821
0.617821
0.617821
0.61782
0.61782
0.617819
0.617819
0.617819
0.617819
0.617819
0.617818
0.617818
0.617819
0.617819
0.61782
0.617821
0.617822
0.617823
0.617824
0.666732
0.666732
0.666732
0.666731
0.666731
0.66673
0.66673
0.666729
0.666729
0.666729
0.666729
0.666729
0.666729
0.666729
0.666729
0.666731
0.666732
0.666733
0.666734
0.666735
0.719004
0.719004
0.719004
0.719004
0.719003
0.719003
0.719002
0.719002
0.719002
0.719002
0.719001
0.719001
0.719001
0.719001
0.719002
0.719003
0.719004
0.719005
0.719007
0.719007
0.774818
0.774818
0.774818
0.774818
0.774817
0.774817
0.774816
0.774816
0.774816
0.774816
0.774815
0.774815
0.774815
0.774815
0.774816
0.774817
0.774818
0.774819
0.774821
0.774821
0.834358
0.834358
0.834358
0.834358
0.834357
0.834357
0.834356
0.834356
0.834355
0.834355
0.834355
0.834355
0.834355
0.834355
0.834355
0.834356
0.834358
0.834359
0.83436
0.834361
0.897812
0.897812
0.897812
0.897811
0.89781
0.89781
0.897809
0.897809
0.897809
0.897809
0.897808
0.897808
0.897808
0.897808
0.897809
0.89781
0.897811
0.897812
0.897814
0.897815
0.965371
0.965371
0.965371
0.96537
0.965369
0.965369
0.965368
0.965368
0.965368
0.965367
0.965367
0.965367
0.965367
0.965367
0.965367
0.965368
0.96537
0.965371
0.965373
0.965373
1.03723
1.03723
1.03723
1.03723
1.03723
1.03723
1.03723
1.03723
1.03723
1.03723
1.03723
1.03723
1.03723
1.03723
1.03723
1.03723
1.03723
1.03723
1.03723
1.03723
1.11359
1.11359
1.11359
1.11358
1.11358
1.11358
1.11358
1.11358
1.11358
1.11358
1.11358
1.11358
1.11358
1.11358
1.11358
1.11358
1.11358
1.11359
1.11359
1.11359
1.19464
1.19464
1.19464
1.19464
1.19464
1.19464
1.19463
1.19463
1.19463
1.19463
1.19463
1.19463
1.19463
1.19463
1.19463
1.19463
1.19464
1.19464
1.19464
1.19464
1.28058
1.28058
1.28058
1.28058
1.28058
1.28058
1.28058
1.28058
1.28058
1.28058
1.28058
1.28058
1.28058
1.28058
1.28058
1.28058
1.28058
1.28058
1.28058
1.28059
1.37162
1.37162
1.37162
1.37162
1.37162
1.37162
1.37162
1.37162
1.37162
1.37162
1.37162
1.37162
1.37162
1.37162
1.37162
1.37162
1.37162
1.37162
1.37163
1.37163
1.46796
1.46796
1.46796
1.46796
1.46796
1.46796
1.46796
1.46796
1.46796
1.46796
1.46795
1.46795
1.46795
1.46795
1.46795
1.46796
1.46796
1.46796