/*--------------------------------*- C++ -*----------------------------------*\
| =========                 |                                                 |
| \\      /  F ield         | OpenFOAM: The Open Source CFD Toolbox           |
|  \\    /   O peration     | Version:  1.6                                   |
|   \\  /    A nd           | Web:      www.OpenFOAM.org                      |
|    \\/     M anipulation  |                                                 |
\*---------------------------------------------------------------------------*/
FoamFile
{
    version     2.0;
    format      ascii;
    class       volScalarField;
    location    "0.4";
    object      T;
}
// * * * * * * * * * * * * * * * * * * * * * * * * * * * * * * * * * * * * * //

dimensions      [0 0 0 0 0 0 0];

internalField   nonuniform List<scalar> 
400
(
4.99278
7.71064
8.62538
9.01379
9.21372
9.33038
9.403
9.44871
9.47583
9.48851
9.48851
9.47583
9.44871
9.403
9.33038
9.21372
9.01379
8.62538
7.71064
4.99278
2.24606
4.93509
6.40257
7.23001
7.72459
8.0354
8.23616
8.36497
8.44219
8.47849
8.47848
8.44219
8.36497
8.23615
8.0354
7.72459
7.23001
6.40257
4.93509
2.24606
1.30251
3.38127
4.82011
5.7795
6.41974
6.85106
7.14193
7.33355
7.45023
7.50554
7.50554
7.45023
7.33354
7.14192
6.85106
6.41974
5.7795
4.82011
3.38127
1.30251
0.885331
2.46768
3.7176
4.64881
5.32465
5.80815
6.14803
6.37823
6.52088
6.58915
6.58915
6.52088
6.37822
6.14802
5.80815
5.32465
4.64881
3.7176
2.46768
0.88533
0.656596
1.8869
2.93445
3.77438
4.423
4.91016
5.26525
5.51201
5.66756
5.74272
5.74271
5.66755
5.51201
5.26524
4.91015
4.423
3.77438
2.93445
1.8869
0.656595
0.510902
1.48936
2.35972
3.09234
3.68413
4.14579
4.49251
4.7389
4.89659
4.97346
4.97346
4.89658
4.73889
4.49251
4.14578
3.68413
3.09234
2.35972
1.48936
0.510903
0.408737
1.20048
1.9236
2.55235
3.0769
3.49809
3.82208
4.0566
4.20866
4.28336
4.28335
4.20865
4.05659
3.82207
3.49808
3.07689
2.55234
1.9236
1.20048
0.408737
0.332504
0.980798
1.58282
2.11785
2.57466
2.94948
3.24324
3.45906
3.60049
3.67042
3.67042
3.60048
3.45904
3.24322
2.94947
2.57464
2.11783
1.58281
0.980789
0.332502
0.273188
0.80799
1.31002
1.76292
2.15607
2.4839
2.74453
2.93827
3.06633
3.12998
3.12998
3.06633
2.93826
2.74452
2.48388
2.15605
1.76291
1.31001
0.807979
0.273185
0.225651
0.668558
1.08736
1.46912
1.80448
2.08749
2.31496
2.48558
2.59912
2.65579
2.65579
2.59912
2.48556
2.31494
2.08747
1.80447
1.46911
1.08734
0.668548
0.225647
0.186709
0.553834
0.902712
1.22308
1.50692
1.74858
1.94441
2.09233
2.19128
2.24083
2.24083
2.19128
2.09232
1.9444
1.74857
1.50691
1.22306
0.902699
0.553825
0.186706
0.154253
0.457935
0.747532
1.01485
1.25317
1.45738
1.62389
1.75033
1.83525
1.87788
1.87788
1.83524
1.75031
1.62388
1.45736
1.25315
1.01483
0.747518
0.457926
0.15425
0.126805
0.376666
0.615527
0.836831
1.03502
1.20566
1.34543
1.45199
1.52377
1.55988
1.55988
1.52376
1.45197
1.34541
1.20564
1.035
0.836807
0.615509
0.376655
0.126802
0.103276
0.306897
0.501897
0.683047
0.845805
0.986433
1.10201
1.19038
1.25005
1.28011
1.2801
1.25004
1.19036
1.10198
0.986405
0.845778
0.683019
0.501876
0.306884
0.103271
0.082825
0.246197
0.402846
0.54865
0.679959
0.793704
0.887419
0.959229
1.0078
1.03229
1.03229
1.00779
0.959208
0.887391
0.793674
0.67993
0.54862
0.402824
0.246182
0.0828201
0.064782
0.192603
0.315274
0.429608
0.532751
0.62226
0.69614
0.752841
0.791242
0.810618
0.810614
0.79123
0.752821
0.696113
0.622231
0.532722
0.429579
0.315253
0.19259
0.0647778
0.0485893
0.144481
0.236566
0.322475
0.400067
0.467491
0.523212
0.566026
0.595047
0.609698
0.609694
0.595035
0.566007
0.523187
0.467463
0.40004
0.322447
0.236545
0.144467
0.0485843
0.0337676
0.100418
0.164449
0.224224
0.278256
0.325249
0.364119
0.394008
0.41428
0.424518
0.424516
0.414272
0.393994
0.3641
0.325228
0.278236
0.224204
0.164434
0.100408
0.0337635
0.0198915
0.0591566
0.0968886
0.132126
0.163994
0.191725
0.214676
0.232332
0.244311
0.250363
0.250361
0.244306
0.232323
0.214663
0.191712
0.163981
0.132113
0.096879
0.0591511
0.0198891
0.00656971
0.0195385
0.0320024
0.0436446
0.054176
0.0633426
0.0709308
0.0767698
0.0807324
0.0827343
0.0827339
0.0807307
0.0767666
0.0709261
0.0633376
0.0541719
0.0436398
0.0319983
0.0195361
0.00656867
)
;

boundaryField
{
    left
    {
        type            fixedValue;
        value           uniform 0;
    }
    down
    {
        type            fixedValue;
        value           uniform 10;
    }
    up
    {
        type            fixedValue;
        value           uniform 0;
    }
    right
    {
        type            fixedValue;
        value           uniform 0;
    }
    frontAndBack
    {
        type            empty;
    }
}


// ************************************************************************* //
